<VTKFile type="UnstructuredGrid"  version="0.1"   > 
<UnstructuredGrid> 
<Piece  NumberOfPoints="  6489" NumberOfCells=" 12480"> 
<Points> 
<DataArray  type="Float64"  NumberOfComponents="3"  format="ascii" > 
0.000000 -3.000000 0.0 
24.000000 -3.000000 0.0 
24.000000 3.000000 0.0 
0.000000 3.000000 0.0 
24.000000 -2.000000 0.0 
48.000000 -2.000000 0.0 
48.000000 2.000000 0.0 
24.000000 2.000000 0.0 
0.255319 -3.000000 0.0 
0.510638 -3.000000 0.0 
0.765957 -3.000000 0.0 
1.021277 -3.000000 0.0 
1.276596 -3.000000 0.0 
1.531915 -3.000000 0.0 
1.787234 -3.000000 0.0 
2.042553 -3.000000 0.0 
2.297872 -3.000000 0.0 
2.553191 -3.000000 0.0 
2.808511 -3.000000 0.0 
3.063830 -3.000000 0.0 
3.319149 -3.000000 0.0 
3.574468 -3.000000 0.0 
3.829787 -3.000000 0.0 
4.085106 -3.000000 0.0 
4.340426 -3.000000 0.0 
4.595745 -3.000000 0.0 
4.851064 -3.000000 0.0 
5.106383 -3.000000 0.0 
5.361702 -3.000000 0.0 
5.617021 -3.000000 0.0 
5.872340 -3.000000 0.0 
6.127660 -3.000000 0.0 
6.382979 -3.000000 0.0 
6.638298 -3.000000 0.0 
6.893617 -3.000000 0.0 
7.148936 -3.000000 0.0 
7.404255 -3.000000 0.0 
7.659574 -3.000000 0.0 
7.914894 -3.000000 0.0 
8.170213 -3.000000 0.0 
8.425532 -3.000000 0.0 
8.680851 -3.000000 0.0 
8.936170 -3.000000 0.0 
9.191489 -3.000000 0.0 
9.446809 -3.000000 0.0 
9.702128 -3.000000 0.0 
9.957447 -3.000000 0.0 
10.212766 -3.000000 0.0 
10.468085 -3.000000 0.0 
10.723404 -3.000000 0.0 
10.978723 -3.000000 0.0 
11.234043 -3.000000 0.0 
11.489362 -3.000000 0.0 
11.744681 -3.000000 0.0 
12.000000 -3.000000 0.0 
12.255319 -3.000000 0.0 
12.510638 -3.000000 0.0 
12.765957 -3.000000 0.0 
13.021277 -3.000000 0.0 
13.276596 -3.000000 0.0 
13.531915 -3.000000 0.0 
13.787234 -3.000000 0.0 
14.042553 -3.000000 0.0 
14.297872 -3.000000 0.0 
14.553191 -3.000000 0.0 
14.808511 -3.000000 0.0 
15.063830 -3.000000 0.0 
15.319149 -3.000000 0.0 
15.574468 -3.000000 0.0 
15.829787 -3.000000 0.0 
16.085106 -3.000000 0.0 
16.340426 -3.000000 0.0 
16.595745 -3.000000 0.0 
16.851064 -3.000000 0.0 
17.106383 -3.000000 0.0 
17.361702 -3.000000 0.0 
17.617021 -3.000000 0.0 
17.872340 -3.000000 0.0 
18.127660 -3.000000 0.0 
18.382979 -3.000000 0.0 
18.638298 -3.000000 0.0 
18.893617 -3.000000 0.0 
19.148936 -3.000000 0.0 
19.404255 -3.000000 0.0 
19.659574 -3.000000 0.0 
19.914894 -3.000000 0.0 
20.170213 -3.000000 0.0 
20.425532 -3.000000 0.0 
20.680851 -3.000000 0.0 
20.936170 -3.000000 0.0 
21.191489 -3.000000 0.0 
21.446809 -3.000000 0.0 
21.702128 -3.000000 0.0 
21.957447 -3.000000 0.0 
22.212766 -3.000000 0.0 
22.468085 -3.000000 0.0 
22.723404 -3.000000 0.0 
22.978723 -3.000000 0.0 
23.234043 -3.000000 0.0 
23.489362 -3.000000 0.0 
23.744681 -3.000000 0.0 
24.000000 -2.707107 0.0 
24.000000 -2.414214 0.0 
24.000000 -2.207107 0.0 
24.126691 -2.000000 0.0 
24.253382 -2.000000 0.0 
24.381410 -2.000000 0.0 
24.509439 -2.000000 0.0 
24.638819 -2.000000 0.0 
24.768199 -2.000000 0.0 
24.898945 -2.000000 0.0 
25.029691 -2.000000 0.0 
25.161817 -2.000000 0.0 
25.293944 -2.000000 0.0 
25.427465 -2.000000 0.0 
25.560986 -2.000000 0.0 
25.695917 -2.000000 0.0 
25.830848 -2.000000 0.0 
25.967204 -2.000000 0.0 
26.103559 -2.000000 0.0 
26.241354 -2.000000 0.0 
26.379149 -2.000000 0.0 
26.518399 -2.000000 0.0 
26.657649 -2.000000 0.0 
26.798369 -2.000000 0.0 
26.939089 -2.000000 0.0 
27.081295 -2.000000 0.0 
27.223501 -2.000000 0.0 
27.367208 -2.000000 0.0 
27.510915 -2.000000 0.0 
27.656139 -2.000000 0.0 
27.801363 -2.000000 0.0 
27.948121 -2.000000 0.0 
28.094878 -2.000000 0.0 
28.243185 -2.000000 0.0 
28.391492 -2.000000 0.0 
28.541364 -2.000000 0.0 
28.691237 -2.000000 0.0 
28.842692 -2.000000 0.0 
28.994147 -2.000000 0.0 
29.147201 -2.000000 0.0 
29.300255 -2.000000 0.0 
29.454924 -2.000000 0.0 
29.609594 -2.000000 0.0 
29.765897 -2.000000 0.0 
29.922200 -2.000000 0.0 
30.080152 -2.000000 0.0 
30.238105 -2.000000 0.0 
30.397726 -2.000000 0.0 
30.557346 -2.000000 0.0 
30.718652 -2.000000 0.0 
30.879958 -2.000000 0.0 
31.042966 -2.000000 0.0 
31.205975 -2.000000 0.0 
31.370705 -2.000000 0.0 
31.535434 -2.000000 0.0 
31.701903 -2.000000 0.0 
31.868372 -2.000000 0.0 
32.036598 -2.000000 0.0 
32.204825 -2.000000 0.0 
32.374827 -2.000000 0.0 
32.544829 -2.000000 0.0 
32.716627 -2.000000 0.0 
32.888424 -2.000000 0.0 
33.062035 -2.000000 0.0 
33.235646 -2.000000 0.0 
33.411089 -2.000000 0.0 
33.586533 -2.000000 0.0 
33.763829 -2.000000 0.0 
33.941126 -2.000000 0.0 
34.120294 -2.000000 0.0 
34.299461 -2.000000 0.0 
34.480521 -2.000000 0.0 
34.661581 -2.000000 0.0 
34.844552 -2.000000 0.0 
35.027523 -2.000000 0.0 
35.212425 -2.000000 0.0 
35.397328 -2.000000 0.0 
35.584183 -2.000000 0.0 
35.771038 -2.000000 0.0 
35.959866 -2.000000 0.0 
36.148693 -2.000000 0.0 
36.339515 -2.000000 0.0 
36.530336 -2.000000 0.0 
36.723172 -2.000000 0.0 
36.916007 -2.000000 0.0 
37.110879 -2.000000 0.0 
37.305751 -2.000000 0.0 
37.502680 -2.000000 0.0 
37.699609 -2.000000 0.0 
37.898617 -2.000000 0.0 
38.097625 -2.000000 0.0 
38.298735 -2.000000 0.0 
38.499844 -2.000000 0.0 
38.703076 -2.000000 0.0 
38.906309 -2.000000 0.0 
39.111687 -2.000000 0.0 
39.317065 -2.000000 0.0 
39.524611 -2.000000 0.0 
39.732157 -2.000000 0.0 
39.941895 -2.000000 0.0 
40.151633 -2.000000 0.0 
40.363584 -2.000000 0.0 
40.575536 -2.000000 0.0 
40.789726 -2.000000 0.0 
41.003915 -2.000000 0.0 
41.220366 -2.000000 0.0 
41.436817 -2.000000 0.0 
41.655553 -2.000000 0.0 
41.874290 -2.000000 0.0 
42.095335 -2.000000 0.0 
42.316380 -2.000000 0.0 
42.539759 -2.000000 0.0 
42.763139 -2.000000 0.0 
42.988876 -2.000000 0.0 
43.214613 -2.000000 0.0 
43.442734 -2.000000 0.0 
43.670855 -2.000000 0.0 
43.901384 -2.000000 0.0 
44.131913 -2.000000 0.0 
44.364876 -2.000000 0.0 
44.597839 -2.000000 0.0 
44.833261 -2.000000 0.0 
45.068684 -2.000000 0.0 
45.306592 -2.000000 0.0 
45.544500 -2.000000 0.0 
45.784919 -2.000000 0.0 
46.025339 -2.000000 0.0 
46.268297 -2.000000 0.0 
46.511255 -2.000000 0.0 
46.756778 -2.000000 0.0 
47.002301 -2.000000 0.0 
47.250416 -2.000000 0.0 
47.498531 -2.000000 0.0 
47.749265 -2.000000 0.0 
48.000000 -1.714286 0.0 
48.000000 -1.428571 0.0 
48.000000 -1.142857 0.0 
48.000000 -0.857143 0.0 
48.000000 -0.571429 0.0 
48.000000 -0.285714 0.0 
48.000000 -0.000000 0.0 
48.000000 0.285714 0.0 
48.000000 0.571429 0.0 
48.000000 0.857143 0.0 
48.000000 1.142857 0.0 
48.000000 1.428571 0.0 
48.000000 1.714286 0.0 
47.749265 2.000000 0.0 
47.498531 2.000000 0.0 
47.250416 2.000000 0.0 
47.002301 2.000000 0.0 
46.756778 2.000000 0.0 
46.511255 2.000000 0.0 
46.268297 2.000000 0.0 
46.025339 2.000000 0.0 
45.784919 2.000000 0.0 
45.544500 2.000000 0.0 
45.306592 2.000000 0.0 
45.068684 2.000000 0.0 
44.833261 2.000000 0.0 
44.597839 2.000000 0.0 
44.364876 2.000000 0.0 
44.131913 2.000000 0.0 
43.901384 2.000000 0.0 
43.670855 2.000000 0.0 
43.442734 2.000000 0.0 
43.214613 2.000000 0.0 
42.988876 2.000000 0.0 
42.763139 2.000000 0.0 
42.539759 2.000000 0.0 
42.316380 2.000000 0.0 
42.095335 2.000000 0.0 
41.874290 2.000000 0.0 
41.655553 2.000000 0.0 
41.436817 2.000000 0.0 
41.220366 2.000000 0.0 
41.003915 2.000000 0.0 
40.789726 2.000000 0.0 
40.575536 2.000000 0.0 
40.363584 2.000000 0.0 
40.151633 2.000000 0.0 
39.941895 2.000000 0.0 
39.732157 2.000000 0.0 
39.524611 2.000000 0.0 
39.317065 2.000000 0.0 
39.111687 2.000000 0.0 
38.906309 2.000000 0.0 
38.703076 2.000000 0.0 
38.499844 2.000000 0.0 
38.298735 2.000000 0.0 
38.097625 2.000000 0.0 
37.898617 2.000000 0.0 
37.699609 2.000000 0.0 
37.502680 2.000000 0.0 
37.305751 2.000000 0.0 
37.110879 2.000000 0.0 
36.916007 2.000000 0.0 
36.723172 2.000000 0.0 
36.530336 2.000000 0.0 
36.339515 2.000000 0.0 
36.148693 2.000000 0.0 
35.959866 2.000000 0.0 
35.771038 2.000000 0.0 
35.584183 2.000000 0.0 
35.397328 2.000000 0.0 
35.212425 2.000000 0.0 
35.027523 2.000000 0.0 
34.844552 2.000000 0.0 
34.661581 2.000000 0.0 
34.480521 2.000000 0.0 
34.299461 2.000000 0.0 
34.120294 2.000000 0.0 
33.941126 2.000000 0.0 
33.763829 2.000000 0.0 
33.586533 2.000000 0.0 
33.411089 2.000000 0.0 
33.235646 2.000000 0.0 
33.062035 2.000000 0.0 
32.888424 2.000000 0.0 
32.716627 2.000000 0.0 
32.544829 2.000000 0.0 
32.374827 2.000000 0.0 
32.204825 2.000000 0.0 
32.036598 2.000000 0.0 
31.868372 2.000000 0.0 
31.701903 2.000000 0.0 
31.535434 2.000000 0.0 
31.370705 2.000000 0.0 
31.205975 2.000000 0.0 
31.042966 2.000000 0.0 
30.879958 2.000000 0.0 
30.718652 2.000000 0.0 
30.557346 2.000000 0.0 
30.397726 2.000000 0.0 
30.238105 2.000000 0.0 
30.080152 2.000000 0.0 
29.922200 2.000000 0.0 
29.765897 2.000000 0.0 
29.609594 2.000000 0.0 
29.454924 2.000000 0.0 
29.300255 2.000000 0.0 
29.147201 2.000000 0.0 
28.994147 2.000000 0.0 
28.842692 2.000000 0.0 
28.691237 2.000000 0.0 
28.541364 2.000000 0.0 
28.391492 2.000000 0.0 
28.243185 2.000000 0.0 
28.094878 2.000000 0.0 
27.948121 2.000000 0.0 
27.801363 2.000000 0.0 
27.656139 2.000000 0.0 
27.510915 2.000000 0.0 
27.367208 2.000000 0.0 
27.223501 2.000000 0.0 
27.081295 2.000000 0.0 
26.939089 2.000000 0.0 
26.798369 2.000000 0.0 
26.657649 2.000000 0.0 
26.518399 2.000000 0.0 
26.379149 2.000000 0.0 
26.241354 2.000000 0.0 
26.103559 2.000000 0.0 
25.967204 2.000000 0.0 
25.830848 2.000000 0.0 
25.695917 2.000000 0.0 
25.560986 2.000000 0.0 
25.427465 2.000000 0.0 
25.293944 2.000000 0.0 
25.161817 2.000000 0.0 
25.029691 2.000000 0.0 
24.898945 2.000000 0.0 
24.768199 2.000000 0.0 
24.638819 2.000000 0.0 
24.509439 2.000000 0.0 
24.381410 2.000000 0.0 
24.253382 2.000000 0.0 
24.126691 2.000000 0.0 
24.000000 2.207107 0.0 
24.000000 2.414214 0.0 
24.000000 2.707107 0.0 
23.744681 3.000000 0.0 
23.489362 3.000000 0.0 
23.234043 3.000000 0.0 
22.978723 3.000000 0.0 
22.723404 3.000000 0.0 
22.468085 3.000000 0.0 
22.212766 3.000000 0.0 
21.957447 3.000000 0.0 
21.702128 3.000000 0.0 
21.446809 3.000000 0.0 
21.191489 3.000000 0.0 
20.936170 3.000000 0.0 
20.680851 3.000000 0.0 
20.425532 3.000000 0.0 
20.170213 3.000000 0.0 
19.914894 3.000000 0.0 
19.659574 3.000000 0.0 
[...]
<PointData  Vectors="sigma"> 
<DataArray  type="Float64"  Name="sigma" NumberOfComponents="3" format="ascii"> 
-35417.300036   -6122.299566   -4865.240770   
196.190696   205.721059   429.046680   
-218.297937   -252.531665   509.087117   
35356.968469   6855.695592   -5188.200953   
-40079.193777   -14092.279972   -12153.279485   
-393.005262   432.420921   -518.271486   
430.311349   -502.722903   -501.225588   
40559.181172   15677.417556   -12661.880904   
-33895.262472   -1037.124122   -2096.451624   
-31237.124718   -104.537660   -449.002315   
-30163.417687   64.482355   -204.775860   
-29229.166509   -56.945419   -119.777007   
-29414.546463   -9.805802   -38.462182   
-29554.195097   30.015119   3.732199   
-29620.426404   34.759578   32.498575   
-29441.767206   6.102363   52.089540   
-29144.410377   -26.206683   47.811398   
-29013.634544   -39.079955   15.498040   
-28926.547306   -19.232742   -20.670937   
-29055.396108   33.261522   -14.917373   
-29251.914093   155.139726   41.883411   
-29566.388034   209.906578   -22.616272   
-28925.969280   117.636096   -129.029800   
-28122.829076   -57.384651   -100.884378   
-28389.451014   8.873074   -89.403191   
-28161.370914   8.058446   -51.272122   
-27851.168555   4.229149   -61.454070   
-27769.216470   16.434074   -74.849242   
-27724.671761   32.144796   -72.700968   
-27646.647714   51.115407   -79.014075   
-27476.088966   48.572277   -72.906263   
-26750.326328   -109.039292   -65.917743   
-26950.088203   -50.002495   -17.216200   
-26919.871193   -17.409942   0.243985   
-26917.512315   79.627022   -0.311261   
-27152.244352   175.558508   -56.167018   
-26675.884694   137.728833   -143.501429   
-26368.933494   62.269514   -135.291581   
-26132.584157   40.352081   -126.504982   
-25904.993089   32.232528   -104.798277   
-25697.522203   31.064052   -87.713627   
-25626.925051   49.223443   -82.487884   
-25525.615622   57.595014   -69.372830   
-25240.798182   42.403463   -55.783925   
-24917.421868   20.875737   -56.797206   
-24789.547323   19.761084   -77.972695   
-24710.945587   25.582183   -76.415897   
-24621.891335   39.692505   -72.043688   
-24457.775869   45.386041   -63.512082   
-23884.542039   -32.917145   -85.389720   
-24093.972195   41.279164   -51.340357   
-23969.506413   35.468464   -39.509557   
-23778.409998   36.723260   -42.307281   
-23624.455861   46.692195   -55.082929   
-23481.819732   42.876125   -56.259841   
-23228.489456   35.913484   -50.279569   
-22948.939701   16.781352   -63.567999   
-22681.830953   -11.009338   -81.024218   
-22454.736742   -23.196366   -108.200354   
-22441.926377   -7.949598   -120.949267   
-22407.804442   16.513316   -109.595335   
-22304.083414   30.045121   -93.816721   
-22154.352252   39.521751   -80.767506   
-21987.397622   43.978872   -72.237255   
-21823.976874   44.109862   -62.400841   
-21664.368556   43.428232   -50.643237   
-21488.348541   38.965389   -42.699638   
-21273.436265   28.657044   -35.010875   
-21002.857746   6.346789   -16.159512   
-20388.924951   -65.408903   -78.534158   
-20530.313467   -2.948873   -73.776309   
-20488.157255   14.215440   -67.614681   
-20417.168298   28.863541   -68.552911   
-20336.273770   42.662297   -63.387016   
-20224.133544   47.398238   -50.942296   
-20000.748296   44.690846   -45.410603   
-19770.597078   38.241317   -52.186592   
-19666.405101   43.939859   -63.407895   
-19547.734891   47.691301   -64.721787   
-19285.365079   33.729435   -59.818441   
-18982.062094   11.568136   -56.776231   
-18807.560609   -4.507625   -72.341566   
-18640.818243   -19.624389   -61.162902   
-18226.715599   -62.406790   -108.150195   
-18468.209524   62.162223   -61.074169   
-18639.613746   151.484410   -78.140809   
-18166.851980   129.334983   -137.054823   
-17812.797318   54.052550   -141.656133   
-17470.244274   44.358083   -162.131242   
-17044.763926   50.798000   -202.417767   
-16498.990482   63.066542   -276.584083   
-15541.342478   -14.012577   -445.731329   
-14914.486859   14.973322   -449.195550   
-14228.374410   129.791867   -443.579274   
-12901.419750   213.449090   -772.471565   
-10946.619633   181.889289   -1243.274580   
-8478.991858   14.456899   -1265.056982   
-5840.025546   -72.421464   -1256.067241   
-3014.302975   -218.475925   -1080.250085   
-749.884676   -333.770887   -608.351874   
239.048230   -298.082502   -20.778840   
-610.056743   -34.088910   -193.198552   
-1932.229713   -2201.768524   -2134.210786   
-8462.959875   -9707.834227   -8986.028673   
-56100.425479   -2198.857634   -6842.961522   
-47587.043770   59.759202   -2252.988554   
-41493.568221   228.543673   -1504.216816   
-38262.571777   -130.471384   -908.943577   
-36607.683102   -126.493050   -553.942866   
-35621.916244   -44.710724   -365.806633   
-34911.959481   5.157155   -283.726092   
-33813.232174   -124.878275   -284.917033   
-33775.238337   -56.426675   -154.356052   
-33658.182799   -1.925427   -77.624088   
-33587.969557   78.958781   -7.044492   
-33692.347609   147.717488   -53.046225   
-33165.040526   118.137882   -137.645663   
-32709.730064   45.347054   -118.631928   
-32281.608788   5.994584   -113.748938   
-31592.151630   -89.594619   -134.258666   
-32085.104631   80.838870   -30.149545   
-32384.540386   199.795441   -75.542099   
-31842.088398   167.283033   -154.932423   
-31448.170613   57.276382   -125.325299   
-31151.729903   28.918940   -123.495845   
-30891.418533   11.850343   -120.834176   
-30649.818262   4.609203   -110.464142   
-30426.770724   0.389593   -102.999249   
-30214.274814   0.649451   -94.789539   
-30009.982618   0.260465   -86.448560   
-29803.728875   3.668012   -77.784001   
-29593.333487   5.644558   -73.445028   
-29379.232606   7.677946   -69.533550   
-29163.441095   9.095093   -68.642785   
-28945.862980   10.339746   -67.061825   
-28727.537701   11.469650   -67.288367   
-28508.158055   12.450138   -66.045897   
-28288.251922   13.679207   -66.405709   
-28066.928707   14.542501   -65.398830   
-27844.560021   16.417150   -66.474099   
-27620.873532   17.031943   -66.140129   
-27395.826561   18.284852   -67.050832   
-27169.152959   18.784052   -66.257438   
-26941.201041   20.000695   -66.824652   
-26712.054186   20.796986   -66.077032   
-26481.965985   22.502277   -67.238475   
-26250.735925   22.957290   -66.778999   
-26018.223584   24.155462   -67.526483   
-25784.266805   24.860854   -66.779947   
-25549.440803   26.199896   -67.711033   
-25313.215912   27.090194   -67.344611   
-25076.019245   28.071644   -68.262364   
-24837.143752   28.657388   -67.445835   
-24597.202584   29.871945   -68.218809   
-24355.884246   30.419703   -67.565928   
-24113.494699   31.959812   -68.748812   
-23869.738362   32.221124   -68.242744   
-23624.717454   33.756611   -69.289816   
-23378.459930   34.193776   -68.892704   
-23130.904388   35.353636   -69.791291   
-22881.940550   35.842815   -69.153074   
-22631.787499   36.967520   -70.068769   
-22380.060569   37.312237   -69.435169   
-22127.184980   38.621008   -70.522393   
-21873.007977   38.932297   -70.034009   
-21617.451415   39.949027   -70.849490   
-21360.430682   40.224420   -70.131199   
-21102.386023   41.493943   -71.214466   
-20843.030747   41.571011   -70.633066   
-20582.396774   42.450679   -71.174044   
-20320.910872   42.532218   -70.186387   
-20059.570867   43.346264   -70.210308   
-19798.733482   42.572357   -66.850589   
-19538.743006   40.935063   -60.509229   
-19278.193259   38.084261   -45.489510   
-19010.261212   29.898448   -31.507300   
-18757.181901   64.887643   -17.760082   
-18752.453609   129.228875   -60.748250   
-18278.548163   80.099786   -141.335402   
-17962.374529   36.251679   -164.669116   
-17684.872282   41.233624   -161.029541   
-17404.361701   42.839260   -144.636083   
-17125.375107   46.330019   -131.171702   
-16850.199612   42.878032   -121.146352   
-16584.502422   37.605532   -108.579614   
-16310.112168   45.257001   -110.378279   
-15971.818770   65.298612   -143.166953   
-15167.801916   -45.192263   -172.615896   
-14980.541434   -62.458471   -177.641279   
-14733.085387   -48.393777   -164.715204   
-14445.163118   -44.637781   -163.189378   
-14150.992291   -43.421094   -165.967032   
-13861.079991   -40.840264   -170.701139   
-13575.096522   -43.002852   -173.249431   
-13282.680778   -42.487920   -174.239665   
-12990.507986   -41.586750   -174.620061   
-12695.892412   -39.656070   -174.975432   
-12400.906277   -38.900162   -175.895505   
-12102.837781   -37.006562   -177.057014   
-11804.319670   -36.198815   -178.253395   
-11503.413586   -34.842611   -178.871286   
-11201.817825   -34.057317   -179.134221   
-10898.651625   -32.370960   -179.050345   
-10594.418454   -31.555563   -179.103936   
-10288.452695   -30.259721   -178.817888   
-9981.287013   -28.115158   -178.898585   
-9673.138884   -26.592407   -179.035587   
-9363.428516   -26.163565   -179.364899   
-9051.554090   -24.164553   -179.421476   
-8738.709522   -23.586072   -179.637961   
-8423.779307   -22.091962   -179.611177   
-8107.556779   -21.197586   -179.824213   
-7789.322167   -19.452417   -179.926033   
-7469.987165   -18.363652   -180.335680   
-7148.798522   -17.312381   -180.470833   
-6825.995405   -16.055848   -180.851399   
-6501.432132   -15.399539   -180.914578   
-6174.710230   -14.348818   -181.278129   
-5845.632319   -13.001844   -181.663240   
-5513.714894   -12.073969   -182.716299   
-5178.155703   -10.825261   -183.749236   
-4839.798015   -11.538007   -184.751898   
-4502.503770   -11.758199   -183.864487   
-4173.884011   -10.983908   -182.333745   
-3854.087320   -9.911697   -176.250722   
-3540.305224   -7.272612   -164.313135   
-3225.860794   -3.746828   -149.933557   
-2907.171061   -1.749847   -135.863970   
-2595.309447   0.055090   -120.796600   
-2301.681121   6.236750   -111.099840   
-2023.205726   10.422738   -110.195912   
-1741.008778   6.382576   -106.830234   
-1459.845475   10.256920   -100.344946   
-1188.237791   37.517594   -139.473655   
-755.421214   145.174664   -306.891876   
-154.726444   814.551460   -760.773280   
-70.778060   1123.897549   -967.657855   
-41.381263   1089.347585   -1052.365446   
-28.702277   913.214840   -1102.918341   
-17.912416   654.788992   -1136.240267   
-8.716586   343.939276   -1153.522255   
-1.239837   5.453735   -1158.084723   
5.610379   -336.658169   -1152.710684   
12.798644   -651.495062   -1137.923967   
22.773342   -900.212699   -1110.634990   
40.221639   -1035.026755   -1058.919845   
68.259444   -973.550223   -938.414778   
177.440042   -816.602848   -721.540717   
794.009904   -140.048892   -259.005634   
1221.701884   -38.095938   -106.284469   
1437.646582   2.187530   -88.096539   
1702.222377   13.384290   -98.575791   
1963.528749   15.076825   -124.785551   
2219.523145   12.371096   -169.006655   
2630.486843   -12.157127   -132.449968   
2900.254778   1.501290   -154.166201   
3142.639850   17.001874   -193.554965   
3466.074922   15.930150   -214.892760   
3951.761543   -16.777921   -158.561202   
4252.933496   -2.026279   -165.739921   
4520.207349   5.917226   -180.530281   
4845.129459   12.689700   -181.549202   
5177.467376   13.218625   -182.642728   
5510.364778   13.191026   -182.813687   
5841.988203   13.377405   -182.326637   
6171.640249   14.234303   -181.977329   
6498.979357   15.079954   -181.407285   
6824.506620   16.251845   -181.048794   
7147.417863   16.650146   -180.417175   
7469.091834   18.800470   -180.147239   
7788.983614   19.900891   -179.627413   
8107.407387   21.424079   -179.797859   
8423.770032   22.179863   -179.592809   
8738.754231   23.455481   -179.563654   
9051.337416   23.748984   -179.121803   
9363.246323   26.576844   -179.207706   
9673.458481   27.718834   -179.025262   
9981.987646   28.598617   -179.449914   
10288.996428   29.710789   -179.267810   
10594.378648   30.417383   -179.489041   
10898.375205   32.039518   -179.063547   
11201.882669   34.205060   -179.052876   
11503.092656   34.061705   -178.522491   
11804.030672   36.894355   -178.133799   
12103.139674   37.663864   -176.976600   
12401.548116   38.962331   -176.167082   
12695.750905   38.704958   -175.182173   
12989.896773   42.121330   -174.380538   
13281.575964   42.795887   -174.092230   
13573.230193   43.511703   -173.034233   
13859.060253   41.846879   -170.667671   
14151.456598   43.386950   -166.109417   
14444.671137   44.283698   -163.351138   
14732.274807   48.098452   -164.536029   
14979.714301   61.988515   -177.365342   
15168.785677   45.766043   -171.992550   
15973.095679   -65.256708   -143.055916   
16310.534043   -45.223788   -110.214330   
16584.518923   -37.463725   -108.669704   
16850.270679   -42.790422   -121.418185   
17125.806247   -46.426509   -131.556689   
17405.181361   -42.428404   -145.059368   
17684.998147   -40.811083   -161.930624   
17963.172788   -35.508267   -164.511724   
18276.555054   -78.550812   -140.868763   
18751.720992   -129.227980   -60.973723   
18759.366948   -66.097936   -17.782713   
19011.347191   -31.326857   -32.234188   
19278.528339   -38.767132   -46.172337   
19538.589006   -41.230937   -60.891236   
19798.375536   -42.638144   -67.042203   
20059.390108   -43.387875   -70.406042   
20320.869842   -42.652335   -70.483604   
20582.395696   -42.591781   -71.406029   
20843.025540   -41.586899   -70.647862   
21102.463026   -41.477920   -71.355159   
21360.436281   -40.364617   -70.218837   
21617.496142   -39.873169   -70.802295   
21873.046520   -38.937945   -70.057658   
22127.184660   -38.652379   -70.467305   
22380.087951   -37.240078   -69.354569   
22631.725140   -36.986192   -70.067156   
22882.007768   -35.752029   -69.265863   
23130.874365   -35.538156   -69.704196   
23378.533432   -33.932585   -68.585466   
23624.848802   -33.720389   -69.280593   
23869.699653   -32.348193   -68.211926   
24113.540653   -31.828288   -68.727257   
24356.238360   -30.400838   -67.909665   
24597.392465   -30.243870   -68.607448   
24837.467673   -28.601924   -67.746640   
25076.097628   -28.501687   -68.361618   
25313.559466   -26.703678   -67.315403   
25549.762996   -26.423366   -68.062905   
25784.420625   -25.115112   -66.807124   
26018.438050   -23.978609   -67.288716   
26251.130485   -22.834330   -66.745185   
26482.484487   -22.466454   -67.497069   
26712.494752   -20.978988   -66.540062   
26941.523247   -20.417495   -67.044600   
27169.369384   -18.668294   -66.143146   
27395.846917   -18.408841   -66.886412   
27620.593284   -17.117378   -65.601267   
27844.295592   -15.937438   -65.884080   
28066.085159   -14.840101   -64.809551   
28286.859242   -13.538865   -65.460879   
28505.998499   -12.612644   -64.966271   
28723.921030   -12.612127   -65.200756   
28940.828309   -10.989892   -63.540645   
29156.656329   -11.068337   -63.423262   
29371.326897   -11.424522   -61.163460   
29586.796713   -13.954779   -58.682881   
29807.632593   -16.823778   -52.278000   
30044.946233   -26.355892   -45.021585   
30304.945043   -37.671485   -35.816684   
30594.560835   -43.080030   -37.006184   
30864.542135   -49.934177   -50.530382   
31011.173508   -48.839656   -59.433737   
31126.599728   -19.205056   -58.055493   
31229.434362   8.475500   -69.085618   
31328.393207   31.622912   -71.916309   
31589.099520   32.719528   -59.095248   
31837.704665   20.008492   -64.584697   
32052.291275   12.217796   -77.765136   
32249.235669   10.060575   -90.817800   
32443.399286   9.924654   -104.302861   
32643.626941   10.851426   -113.542155   
32861.122538   9.927448   -121.016175   
33116.807402   0.846906   -120.762894   
33436.972412   -13.457647   -112.815165   
33840.771883   -22.440459   -108.008500   
34331.303566   -18.885627   -129.999274   
34892.932012   -11.843746   -186.341940   
35505.790626   16.174815   -268.451298   
36406.023479   96.706811   -416.794432   
37879.963126   229.181416   -732.008899   
40444.792390   474.437223   -1391.901019   
45383.560393   1058.906479   -2963.052138   
56509.428226   3528.384153   -8245.950901   
7597.269907   10271.092338   -8631.162482   
1588.907339   1828.747553   -1721.290451   
567.866276   -108.416506   -73.351291   
-125.883771   276.151756   8.966394   
964.904659   287.937862   -683.110071   
3229.180087   107.600732   -1138.073755   
6003.117923   -34.301989   -1240.720994   
8646.654330   -100.226652   -1138.355112   
10864.085076   -117.169121   -961.929810   
12625.508742   -115.075664   -775.334245   
13973.177198   -104.433652   -599.151817   
15010.678768   -85.880829   -442.079210   
15864.274937   -71.339680   -327.228744   
16524.673369   -54.043501   -254.120093   
16945.600525   -31.120497   -214.579667   
17260.056370   -20.206063   -176.650231   
17647.845691   -27.008008   -153.019678   
18000.422902   -35.225559   -141.663619   
18276.758948   -39.297148   -129.349464   
18531.847610   -85.703476   -103.529992   
18921.153008   -126.826582   -41.829588   
18814.506286   -58.929946   -7.976626   
18978.307092   -12.185548   -0.741931   
19165.446027   -20.665024   -5.292476   
19326.234693   -25.382725   -20.832575   
19467.753148   -27.660518   -33.570315   
19592.206729   -27.782299   -42.659037   
19733.741327   -28.716696   -40.841242   
19986.586902   -39.708952   -40.879092   
20218.789483   -45.833271   -49.890925   
20331.033620   -41.780573   -63.451844   
20410.980967   -27.426898   -68.472212   
20482.205177   -12.755004   -67.073245   
20526.575940   4.780191   -72.838108   
20387.819738   66.663634   -77.626124   
21004.763485   -6.205260   -14.623717   
21275.054302   -27.761599   -34.423324   
21488.839310   -38.479340   -42.969365   
21664.929816   -43.903475   -49.870937   
21825.792261   -43.965508   -61.817472   
21987.570729   -43.880447   -72.344281   
22153.291646   -39.256527   -81.172942   
22303.037412   -29.762382   -94.278968   
22407.635679   -16.741013   -109.634528   
22442.591408   9.128978   -121.322803   
22454.152383   22.549325   -109.096707   
22682.631615   8.861259   -79.812026   
22952.943247   -18.169758   -61.504829   
23232.844608   -36.533797   -48.896217   
23483.671012   -43.745580   -56.187097   
23628.257979   -47.486440   -54.821045   
23781.645697   -38.914145   -43.171798   
23973.356900   -36.718323   -39.895254   
24101.532462   -41.859023   -52.351686   
23890.669358   31.245359   -86.043952   
24458.710612   -45.500433   -64.888070   
24623.655867   -40.040940   -72.988037   
24714.960051   -25.905596   -76.934544   
24792.134495   -20.246027   -79.076980   
24921.971446   -21.873077   -57.625147   
25247.283886   -43.060609   -58.164100   
25528.827221   -58.733223   -70.079850   
25630.143362   -49.526145   -82.349644   
25700.221420   -31.413012   -87.909751   
25908.380182   -33.930837   -104.468121   
26138.083370   -41.687950   -125.050640   
26370.246153   -62.386018   -134.634421   
26676.177832   -139.840188   -143.819071   
27159.109347   -175.992786   -59.073440   
26922.642854   -80.937140   -5.026568   
26911.878297   18.977771   -8.661089   
26932.666033   56.968745   -32.518416   
26719.482530   118.941559   -78.380730   
27469.547182   -26.450559   -91.544878   
27613.413363   -12.970262   -110.351459   
27668.180859   -6.747966   -101.542249   
27894.313763   -25.829364   -105.576902   
28126.826592   -19.628132   -129.058958   
28161.451177   14.084424   -155.802845   
28150.222213   25.389804   -144.945584   
28386.881078   14.566963   -139.659203   
28642.824503   -7.465817   -138.884213   
28875.518084   -27.887055   -127.645652   
29078.853122   -30.954293   -129.077544   
29089.781061   -5.804796   -136.380051   
29025.603733   14.635813   -127.546416   
29141.241567   14.619015   -108.668695   
29244.609808   20.810785   -97.757531   
29253.354143   25.420021   -76.460261   
29237.051899   1.897451   -25.722864   