<VTKFile type="UnstructuredGrid"  version="0.1"   > 
<UnstructuredGrid> 
<Piece  NumberOfPoints="  102" NumberOfCells=" 32"> 
<Points> 
<DataArray  type="Float64"  NumberOfComponents="3"  format="ascii" > 
5.000000 0.000000 0.000000 
5.312500 0.000000 0.000000 
5.625000 0.000000 0.000000 
5.937500 0.000000 0.000000 
6.250000 0.000000 0.000000 
6.562500 0.000000 0.000000 
6.875000 0.000000 0.000000 
7.187500 0.000000 0.000000 
7.500000 0.000000 0.000000 
7.812500 0.000000 0.000000 
8.125000 0.000000 0.000000 
8.437500 0.000000 0.000000 
8.750000 0.000000 0.000000 
9.062500 0.000000 0.000000 
9.375000 0.000000 0.000000 
9.687500 0.000000 0.000000 
10.000000 0.000000 0.000000 
5.000000 1.000000 0.000000 
5.312500 1.000000 0.000000 
5.625000 1.000000 0.000000 
5.937500 1.000000 0.000000 
6.250000 1.000000 0.000000 
6.562500 1.000000 0.000000 
6.875000 1.000000 0.000000 
7.187500 1.000000 0.000000 
7.500000 1.000000 0.000000 
7.812500 1.000000 0.000000 
8.125000 1.000000 0.000000 
8.437500 1.000000 0.000000 
8.750000 1.000000 0.000000 
9.062500 1.000000 0.000000 
9.375000 1.000000 0.000000 
9.687500 1.000000 0.000000 
10.000000 1.000000 0.000000 
5.000000 0.000000 0.500000 
5.312500 0.000000 0.500000 
5.625000 0.000000 0.500000 
5.937500 0.000000 0.500000 
6.250000 0.000000 0.500000 
6.562500 0.000000 0.500000 
6.875000 0.000000 0.500000 
7.187500 0.000000 0.500000 
7.500000 0.000000 0.500000 
7.812500 0.000000 0.500000 
8.125000 0.000000 0.500000 
8.437500 0.000000 0.500000 
8.750000 0.000000 0.500000 
9.062500 0.000000 0.500000 
9.375000 0.000000 0.500000 
9.687500 0.000000 0.500000 
10.000000 0.000000 0.500000 
5.000000 1.000000 0.500000 
5.312500 1.000000 0.500000 
5.625000 1.000000 0.500000 
5.937500 1.000000 0.500000 
6.250000 1.000000 0.500000 
6.562500 1.000000 0.500000 
6.875000 1.000000 0.500000 
7.187500 1.000000 0.500000 
7.500000 1.000000 0.500000 
7.812500 1.000000 0.500000 
8.125000 1.000000 0.500000 
8.437500 1.000000 0.500000 
8.750000 1.000000 0.500000 
9.062500 1.000000 0.500000 
9.375000 1.000000 0.500000 
9.687500 1.000000 0.500000 
10.000000 1.000000 0.500000 
5.000000 0.000000 1.000000 
5.312500 0.000000 1.000000 
5.625000 0.000000 1.000000 
5.937500 0.000000 1.000000 
6.250000 0.000000 1.000000 
6.562500 0.000000 1.000000 
6.875000 0.000000 1.000000 
7.187500 0.000000 1.000000 
7.500000 0.000000 1.000000 
7.812500 0.000000 1.000000 
8.125000 0.000000 1.000000 
8.437500 0.000000 1.000000 
8.750000 0.000000 1.000000 
9.062500 0.000000 1.000000 
9.375000 0.000000 1.000000 
9.687500 0.000000 1.000000 
10.000000 0.000000 1.000000 
5.000000 1.000000 1.000000 
5.312500 1.000000 1.000000 
5.625000 1.000000 1.000000 
5.937500 1.000000 1.000000 
6.250000 1.000000 1.000000 
6.562500 1.000000 1.000000 
6.875000 1.000000 1.000000 
7.187500 1.000000 1.000000 
7.500000 1.000000 1.000000 
7.812500 1.000000 1.000000 
8.125000 1.000000 1.000000 
8.437500 1.000000 1.000000 
8.750000 1.000000 1.000000 
9.062500 1.000000 1.000000 
9.375000 1.000000 1.000000 
9.687500 1.000000 1.000000 
10.000000 1.000000 1.000000 
</DataArray> 
</Points> 
<Cells> 
<DataArray  type="Int32"  Name="connectivity"  format="ascii"> 
0 1 18 17 34 35 52 51 
1 2 19 18 35 36 53 52 
2 3 20 19 36 37 54 53 
3 4 21 20 37 38 55 54 
4 5 22 21 38 39 56 55 
5 6 23 22 39 40 57 56 
6 7 24 23 40 41 58 57 
7 8 25 24 41 42 59 58 
8 9 26 25 42 43 60 59 
9 10 27 26 43 44 61 60 
10 11 28 27 44 45 62 61 
11 12 29 28 45 46 63 62 
12 13 30 29 46 47 64 63 
13 14 31 30 47 48 65 64 
14 15 32 31 48 49 66 65 
15 16 33 32 49 50 67 66 
34 35 52 51 68 69 86 85 
35 36 53 52 69 70 87 86 
36 37 54 53 70 71 88 87 
37 38 55 54 71 72 89 88 
38 39 56 55 72 73 90 89 
39 40 57 56 73 74 91 90 
40 41 58 57 74 75 92 91 
41 42 59 58 75 76 93 92 
42 43 60 59 76 77 94 93 
43 44 61 60 77 78 95 94 
44 45 62 61 78 79 96 95 
45 46 63 62 79 80 97 96 
46 47 64 63 80 81 98 97 
47 48 65 64 81 82 99 98 
48 49 66 65 82 83 100 99 
49 50 67 66 83 84 101 100 
</DataArray> 
<DataArray  type="Int32"  Name="offsets"  format="ascii"> 
8 
16 
24 
32 
40 
48 
56 
64 
72 
80 
88 
96 
104 
112 
120 
128 
136 
144 
152 
160 
168 
176 
184 
192 
200 
208 
216 
224 
232 
240 
248 
256 
</DataArray> 
<DataArray  type="UInt8"  Name="types"  format="ascii"> 
12 
12 
12 
12 
12 
12 
12 
12 
12 
12 
12 
12 
12 
12 
12 
12 
12 
12 
12 
12 
12 
12 
12 
12 
12 
12 
12 
12 
12 
12 
12 
12 
</DataArray> 
</Cells> 
<PointData  Vectors="sigma"> 
<DataArray  type="Float64"  Name="sigma" NumberOfComponents="7" format="ascii"> 
-7.494951   -0.013242   0.001953   0.037457   -0.002122   -0.010278   7.489621   
-7.028127   -0.000192   -0.000064   0.044571   -0.000042   -0.013037   7.028460   
-6.560060   0.000217   -0.000023   0.043897   0.000020   -0.012910   6.560635   
-6.091805   -0.000128   0.000016   0.043969   -0.000018   -0.012926   6.092266   
-5.623135   0.000063   -0.000013   0.043878   0.000008   -0.012906   5.623718   
-5.154577   -0.000030   0.000010   0.043913   -0.000004   -0.012915   5.155177   
-4.685962   0.000012   -0.000008   0.043893   0.000001   -0.012911   4.686633   
-4.217367   0.000000   0.000009   0.043906   0.000001   -0.012912   4.218116   
-3.748778   -0.000011   -0.000013   0.043894   -0.000003   -0.012912   3.749603   
-3.280164   0.000026   0.000021   0.043909   0.000007   -0.012912   3.281145   
-2.811583   -0.000050   -0.000037   0.043885   -0.000014   -0.012909   2.812657   
-2.342959   0.000089   0.000061   0.043925   0.000030   -0.012922   2.344376   
-1.874385   -0.000149   -0.000095   0.043914   -0.000052   -0.012896   1.875940   
-1.406344   0.000258   0.000161   0.044257   0.000129   -0.013010   1.408821   
-0.939822   -0.000275   -0.000040   0.044802   -0.000187   -0.012916   0.943128   
-0.483284   -0.000936   -0.000693   0.046531   0.000252   -0.011491   0.489559   
-0.007611   0.011056   0.001034   0.013878   0.019382   -0.012147   0.049084   
-7.028127   -0.000192   -0.000064   -0.044571   0.000042   -0.013037   7.028460   
-7.027505   -0.006513   0.000965   -0.040677   0.001051   -0.011594   7.025128   
-6.559966   -0.000160   -0.000024   -0.044270   0.000030   -0.012982   6.560363   
-6.091598   0.000140   -0.000018   -0.043887   -0.000014   -0.012908   6.092177   
-5.623191   -0.000079   0.000013   -0.043941   0.000011   -0.012921   5.623721   
-5.154548   0.000037   -0.000011   -0.043885   -0.000005   -0.012908   5.155176   
-4.685972   -0.000015   0.000010   -0.043910   0.000002   -0.012914   4.686647   
-4.217370   0.000000   -0.000011   -0.043894   0.000001   -0.012911   4.218118   
-3.748765   0.000013   0.000015   -0.043907   -0.000004   -0.012912   3.749631   
-3.280181   -0.000031   -0.000025   -0.043890   0.000009   -0.012911   3.281130   
-2.811562   0.000058   0.000041   -0.043917   -0.000018   -0.012917   2.812761   
-2.342984   -0.000099   -0.000066   -0.043900   0.000033   -0.012903   2.344298   
-1.874652   0.000173   0.000111   -0.044091   -0.000079   -0.012966   1.876598   
-1.407104   -0.000212   -0.000067   -0.044358   0.000120   -0.012906   1.409534   
-0.944814   -0.000339   -0.000266   -0.045394   -0.000190   -0.012250   0.949190   
-0.473716   0.005391   0.000497   -0.029340   -0.009597   -0.012531   0.496106   
-0.483284   -0.000936   -0.000693   -0.046531   -0.000252   -0.011491   0.489559   
-0.000000   -0.000000   -0.000000   -0.000000   0.000479   -0.430967   0.746457   
-0.000000   0.000000   0.000000   0.000000   0.000281   -0.432421   0.748975   
-0.000000   -0.000000   -0.000000   -0.000000   0.000052   -0.432905   0.749813   
-0.000000   0.000000   0.000000   0.000000   -0.000000   -0.432984   0.749951   
-0.000000   -0.000000   -0.000000   0.000000   -0.000001   -0.432989   0.749959   
-0.000000   0.000000   -0.000000   0.000000   -0.000001   -0.432981   0.749946   
0.000000   -0.000000   0.000000   0.000000   -0.000000   -0.432982   0.749948   
0.000000   0.000000   0.000000   -0.000000   0.000000   -0.432980   0.749943   
-0.000000   -0.000000   -0.000000   0.000000   -0.000000   -0.432983   0.749949   
0.000000   -0.000000   -0.000000   0.000000   0.000001   -0.432977   0.749939   
0.000000   0.000000   0.000000   -0.000000   0.000001   -0.432994   0.749967   
-0.000000   -0.000000   -0.000000   0.000000   0.000006   -0.432982   0.749947   
0.000000   0.000000   -0.000000   -0.000000   0.000002   -0.433030   0.750029   
-0.000000   -0.000000   -0.000000   0.000000   -0.000107   -0.432777   0.749592   
0.000000   -0.000000   -0.000000   0.000000   -0.000614   -0.431718   0.747758   
-0.000000   -0.000000   -0.000000   -0.000000   -0.001353   -0.428397   0.742009   
0.000000   0.000000   0.000000   0.000000   0.008651   -0.435952   0.755239   
0.000000   0.000000   0.000000   0.000000   -0.000281   -0.432421   0.748975   
0.000000   -0.000000   -0.000000   -0.000000   -0.000265   -0.431936   0.748135   
0.000000   0.000000   0.000000   0.000000   -0.000140   -0.432703   0.749463   
0.000000   -0.000000   0.000000   -0.000000   -0.000025   -0.432947   0.749886   
0.000000   0.000000   0.000000   0.000000   0.000001   -0.432983   0.749948   
0.000000   -0.000000   -0.000000   -0.000000   0.000001   -0.432986   0.749953   
0.000000   0.000000   0.000000   0.000000   0.000001   -0.432981   0.749944   
-0.000000   -0.000000   -0.000000   -0.000000   0.000000   -0.432983   0.749948   
-0.000000   -0.000000   -0.000000   -0.000000   -0.000001   -0.432979   0.749941   
-0.000000   0.000000   -0.000000   -0.000000   -0.000000   -0.432988   0.749958   
0.000000   0.000000   0.000000   -0.000000   -0.000004   -0.432980   0.749943   
-0.000000   -0.000000   -0.000000   -0.000000   -0.000002   -0.433012   0.749998   
0.000000   0.000000   0.000000   0.000000   0.000050   -0.432880   0.749769   
-0.000000   -0.000000   -0.000000   -0.000000   0.000306   -0.432374   0.748894   
0.000000   -0.000000   0.000000   -0.000000   0.000730   -0.430587   0.745800   
0.000000   -0.000000   0.000000   -0.000000   -0.004018   -0.433835   0.751498   
0.000000   -0.000000   -0.000000   -0.000000   0.001353   -0.428397   0.742009   
7.494951   0.013242   -0.001953   -0.037457   -0.002122   -0.010278   7.489621   
7.028127   0.000192   0.000064   -0.044571   -0.000042   -0.013037   7.028460   
6.560060   -0.000217   0.000023   -0.043897   0.000020   -0.012910   6.560635   
6.091805   0.000128   -0.000016   -0.043969   -0.000018   -0.012926   6.092266   
5.623135   -0.000063   0.000013   -0.043878   0.000008   -0.012906   5.623718   
5.154577   0.000030   -0.000010   -0.043913   -0.000004   -0.012915   5.155177   
4.685962   -0.000012   0.000008   -0.043893   0.000001   -0.012911   4.686633   
4.217367   -0.000000   -0.000009   -0.043906   0.000001   -0.012912   4.218116   
3.748778   0.000011   0.000013   -0.043894   -0.000003   -0.012912   3.749603   
3.280164   -0.000026   -0.000021   -0.043909   0.000007   -0.012912   3.281145   
2.811583   0.000050   0.000037   -0.043885   -0.000014   -0.012909   2.812657   
2.342959   -0.000089   -0.000061   -0.043925   0.000030   -0.012922   2.344376   
1.874385   0.000149   0.000095   -0.043914   -0.000052   -0.012896   1.875940   
1.406344   -0.000258   -0.000161   -0.044257   0.000129   -0.013010   1.408821   
0.939822   0.000275   0.000040   -0.044802   -0.000187   -0.012916   0.943128   
0.483284   0.000936   0.000693   -0.046531   0.000252   -0.011491   0.489559   
0.007611   -0.011056   -0.001034   -0.013878   0.019382   -0.012147   0.049084   
7.028127   0.000192   0.000064   0.044571   0.000042   -0.013037   7.028460   
7.027505   0.006513   -0.000965   0.040677   0.001051   -0.011594   7.025128   
6.559966   0.000160   0.000024   0.044270   0.000030   -0.012982   6.560363   
6.091598   -0.000140   0.000018   0.043887   -0.000014   -0.012908   6.092177   
5.623191   0.000079   -0.000013   0.043941   0.000011   -0.012921   5.623721   
5.154548   -0.000037   0.000011   0.043885   -0.000005   -0.012908   5.155176   
4.685972   0.000015   -0.000010   0.043910   0.000002   -0.012914   4.686647   
4.217370   -0.000000   0.000011   0.043894   0.000001   -0.012911   4.218118   
3.748765   -0.000013   -0.000015   0.043907   -0.000004   -0.012912   3.749631   
3.280181   0.000031   0.000025   0.043890   0.000009   -0.012911   3.281130   
2.811562   -0.000058   -0.000041   0.043917   -0.000018   -0.012917   2.812761   
2.342984   0.000099   0.000066   0.043900   0.000033   -0.012903   2.344298   
1.874652   -0.000173   -0.000111   0.044091   -0.000079   -0.012966   1.876598   
1.407104   0.000212   0.000067   0.044358   0.000120   -0.012906   1.409534   
0.944814   0.000339   0.000266   0.045394   -0.000190   -0.012250   0.949190   
0.473716   -0.005391   -0.000497   0.029340   -0.009597   -0.012531   0.496106   
0.483284   0.000936   0.000693   0.046531   -0.000252   -0.011491   0.489559   
</DataArray> 
<DataArray  type="Float64"  Name="U" NumberOfComponents="3" format="ascii"> 
-0.055899   -0.001122   -0.312628   
-0.058168   -0.001054   -0.348495   
-0.060291   -0.000984   -0.385736   
-0.062268   -0.000914   -0.424258   
-0.064098   -0.000843   -0.463969   
-0.065782   -0.000773   -0.504779   
-0.067320   -0.000703   -0.546596   
-0.068711   -0.000633   -0.589328   
-0.069956   -0.000562   -0.632884   
-0.071054   -0.000492   -0.677172   
-0.072006   -0.000422   -0.722100   
-0.072811   -0.000351   -0.767578   
-0.073470   -0.000281   -0.813513   
-0.073983   -0.000211   -0.859814   
-0.074349   -0.000140   -0.906390   
-0.074571   -0.000072   -0.953149   
-0.074650   -0.000016   -1.000000   
-0.055899   0.001122   -0.312628   
-0.058168   0.001054   -0.348495   
-0.060291   0.000984   -0.385736   
-0.062268   0.000914   -0.424258   
-0.064098   0.000843   -0.463969   
-0.065782   0.000773   -0.504779   
-0.067320   0.000703   -0.546596   
-0.068711   0.000633   -0.589328   
-0.069956   0.000562   -0.632884   
-0.071054   0.000492   -0.677172   
-0.072006   0.000422   -0.722100   
-0.072811   0.000351   -0.767578   
-0.073470   0.000281   -0.813513   
-0.073983   0.000211   -0.859814   
-0.074349   0.000140   -0.906390   
-0.074571   0.000072   -0.953149   
-0.074650   0.000016   -1.000000   
-0.000000   -0.000000   -0.312066   
-0.000000   -0.000000   -0.347968   
-0.000000   -0.000000   -0.385244   
-0.000000   -0.000000   -0.423801   
-0.000000   -0.000000   -0.463548   
-0.000000   -0.000000   -0.504393   
-0.000000   -0.000000   -0.546245   
-0.000000   -0.000000   -0.589012   
-0.000000   -0.000000   -0.632603   
-0.000000   -0.000000   -0.676926   
-0.000000   -0.000000   -0.721889   
-0.000000   -0.000000   -0.767402   
-0.000000   -0.000000   -0.813373   
-0.000000   -0.000000   -0.859709   
-0.000000   -0.000000   -0.906320   
-0.000000   -0.000000   -0.953113   
-0.000000   -0.000000   -1.000000   
0.000000   -0.000000   -0.312066   
0.000000   -0.000000   -0.347968   
0.000000   -0.000000   -0.385244   
0.000000   -0.000000   -0.423801   
0.000000   -0.000000   -0.463548   
0.000000   -0.000000   -0.504393   
0.000000   -0.000000   -0.546245   
0.000000   -0.000000   -0.589012   
0.000000   -0.000000   -0.632603   
0.000000   -0.000000   -0.676926   
0.000000   -0.000000   -0.721889   
0.000000   -0.000000   -0.767402   
0.000000   -0.000000   -0.813373   
0.000000   -0.000000   -0.859709   
0.000000   -0.000000   -0.906320   
0.000000   -0.000000   -0.953113   
0.000000   -0.000000   -1.000000   
0.055899   0.001122   -0.312628   
0.058168   0.001054   -0.348495   
0.060291   0.000984   -0.385736   
0.062268   0.000914   -0.424258   
0.064098   0.000843   -0.463969   
0.065782   0.000773   -0.504779   
0.067320   0.000703   -0.546596   
0.068711   0.000633   -0.589328   
0.069956   0.000562   -0.632884   
0.071054   0.000492   -0.677172   
0.072006   0.000422   -0.722100   
0.072811   0.000351   -0.767578   
0.073470   0.000281   -0.813513   
0.073983   0.000211   -0.859814   
0.074349   0.000140   -0.906390   
0.074571   0.000072   -0.953149   
0.074650   0.000016   -1.000000   
0.055899   -0.001122   -0.312628   
0.058168   -0.001054   -0.348495   
0.060291   -0.000984   -0.385736   
0.062268   -0.000914   -0.424258   
0.064098   -0.000843   -0.463969   
0.065782   -0.000773   -0.504779   
0.067320   -0.000703   -0.546596   
0.068711   -0.000633   -0.589328   
0.069956   -0.000562   -0.632884   
0.071054   -0.000492   -0.677172   
0.072006   -0.000422   -0.722100   
0.072811   -0.000351   -0.767578   
0.073470   -0.000281   -0.813513   
0.073983   -0.000211   -0.859814   
0.074349   -0.000140   -0.906390   
0.074571   -0.000072   -0.953149   
0.074650   -0.000016   -1.000000   
</DataArray> 
</PointData> 
</Piece> 
</UnstructuredGrid> 
</VTKFile> 
