<VTKFile type="UnstructuredGrid"  version="0.1"   > 
<UnstructuredGrid> 
<Piece  NumberOfPoints="  425" NumberOfCells=" 256"> 
<Points> 
<DataArray  type="Float64"  NumberOfComponents="3"  format="ascii" > 
0.000000 0.000000 0.000000 
0.312500 0.000000 0.000000 
0.625000 0.000000 0.000000 
0.937500 0.000000 0.000000 
1.250000 0.000000 0.000000 
1.562500 0.000000 0.000000 
1.875000 0.000000 0.000000 
2.187500 0.000000 0.000000 
2.500000 0.000000 0.000000 
2.812500 0.000000 0.000000 
3.125000 0.000000 0.000000 
3.437500 0.000000 0.000000 
3.750000 0.000000 0.000000 
4.062500 0.000000 0.000000 
4.375000 0.000000 0.000000 
4.687500 0.000000 0.000000 
5.000000 0.000000 0.000000 
0.000000 0.250000 0.000000 
0.312500 0.250000 0.000000 
0.625000 0.250000 0.000000 
0.937500 0.250000 0.000000 
1.250000 0.250000 0.000000 
1.562500 0.250000 0.000000 
1.875000 0.250000 0.000000 
2.187500 0.250000 0.000000 
2.500000 0.250000 0.000000 
2.812500 0.250000 0.000000 
3.125000 0.250000 0.000000 
3.437500 0.250000 0.000000 
3.750000 0.250000 0.000000 
4.062500 0.250000 0.000000 
4.375000 0.250000 0.000000 
4.687500 0.250000 0.000000 
5.000000 0.250000 0.000000 
0.000000 0.500000 0.000000 
0.312500 0.500000 0.000000 
0.625000 0.500000 0.000000 
0.937500 0.500000 0.000000 
1.250000 0.500000 0.000000 
1.562500 0.500000 0.000000 
1.875000 0.500000 0.000000 
2.187500 0.500000 0.000000 
2.500000 0.500000 0.000000 
2.812500 0.500000 0.000000 
3.125000 0.500000 0.000000 
3.437500 0.500000 0.000000 
3.750000 0.500000 0.000000 
4.062500 0.500000 0.000000 
4.375000 0.500000 0.000000 
4.687500 0.500000 0.000000 
5.000000 0.500000 0.000000 
0.000000 0.750000 0.000000 
0.312500 0.750000 0.000000 
0.625000 0.750000 0.000000 
0.937500 0.750000 0.000000 
1.250000 0.750000 0.000000 
1.562500 0.750000 0.000000 
1.875000 0.750000 0.000000 
2.187500 0.750000 0.000000 
2.500000 0.750000 0.000000 
2.812500 0.750000 0.000000 
3.125000 0.750000 0.000000 
3.437500 0.750000 0.000000 
3.750000 0.750000 0.000000 
4.062500 0.750000 0.000000 
4.375000 0.750000 0.000000 
4.687500 0.750000 0.000000 
5.000000 0.750000 0.000000 
0.000000 1.000000 0.000000 
0.312500 1.000000 0.000000 
0.625000 1.000000 0.000000 
0.937500 1.000000 0.000000 
1.250000 1.000000 0.000000 
1.562500 1.000000 0.000000 
1.875000 1.000000 0.000000 
2.187500 1.000000 0.000000 
2.500000 1.000000 0.000000 
2.812500 1.000000 0.000000 
3.125000 1.000000 0.000000 
3.437500 1.000000 0.000000 
3.750000 1.000000 0.000000 
4.062500 1.000000 0.000000 
4.375000 1.000000 0.000000 
4.687500 1.000000 0.000000 
5.000000 1.000000 0.000000 
0.000000 0.000000 0.250000 
0.312500 0.000000 0.250000 
0.625000 0.000000 0.250000 
0.937500 0.000000 0.250000 
1.250000 0.000000 0.250000 
1.562500 0.000000 0.250000 
1.875000 0.000000 0.250000 
2.187500 0.000000 0.250000 
2.500000 0.000000 0.250000 
2.812500 0.000000 0.250000 
3.125000 0.000000 0.250000 
3.437500 0.000000 0.250000 
3.750000 0.000000 0.250000 
4.062500 0.000000 0.250000 
4.375000 0.000000 0.250000 
4.687500 0.000000 0.250000 
5.000000 0.000000 0.250000 
0.000000 0.250000 0.250000 
0.312500 0.250000 0.250000 
0.625000 0.250000 0.250000 
0.937500 0.250000 0.250000 
1.250000 0.250000 0.250000 
1.562500 0.250000 0.250000 
1.875000 0.250000 0.250000 
2.187500 0.250000 0.250000 
2.500000 0.250000 0.250000 
2.812500 0.250000 0.250000 
3.125000 0.250000 0.250000 
3.437500 0.250000 0.250000 
3.750000 0.250000 0.250000 
4.062500 0.250000 0.250000 
4.375000 0.250000 0.250000 
4.687500 0.250000 0.250000 
5.000000 0.250000 0.250000 
0.000000 0.500000 0.250000 
0.312500 0.500000 0.250000 
0.625000 0.500000 0.250000 
0.937500 0.500000 0.250000 
1.250000 0.500000 0.250000 
1.562500 0.500000 0.250000 
1.875000 0.500000 0.250000 
2.187500 0.500000 0.250000 
2.500000 0.500000 0.250000 
2.812500 0.500000 0.250000 
3.125000 0.500000 0.250000 
3.437500 0.500000 0.250000 
3.750000 0.500000 0.250000 
4.062500 0.500000 0.250000 
4.375000 0.500000 0.250000 
4.687500 0.500000 0.250000 
5.000000 0.500000 0.250000 
0.000000 0.750000 0.250000 
0.312500 0.750000 0.250000 
0.625000 0.750000 0.250000 
0.937500 0.750000 0.250000 
1.250000 0.750000 0.250000 
1.562500 0.750000 0.250000 
1.875000 0.750000 0.250000 
2.187500 0.750000 0.250000 
2.500000 0.750000 0.250000 
2.812500 0.750000 0.250000 
3.125000 0.750000 0.250000 
3.437500 0.750000 0.250000 
3.750000 0.750000 0.250000 
4.062500 0.750000 0.250000 
4.375000 0.750000 0.250000 
4.687500 0.750000 0.250000 
5.000000 0.750000 0.250000 
0.000000 1.000000 0.250000 
0.312500 1.000000 0.250000 
0.625000 1.000000 0.250000 
0.937500 1.000000 0.250000 
1.250000 1.000000 0.250000 
1.562500 1.000000 0.250000 
1.875000 1.000000 0.250000 
2.187500 1.000000 0.250000 
2.500000 1.000000 0.250000 
2.812500 1.000000 0.250000 
3.125000 1.000000 0.250000 
3.437500 1.000000 0.250000 
3.750000 1.000000 0.250000 
4.062500 1.000000 0.250000 
4.375000 1.000000 0.250000 
4.687500 1.000000 0.250000 
5.000000 1.000000 0.250000 
0.000000 0.000000 0.500000 
0.312500 0.000000 0.500000 
0.625000 0.000000 0.500000 
0.937500 0.000000 0.500000 
1.250000 0.000000 0.500000 
1.562500 0.000000 0.500000 
1.875000 0.000000 0.500000 
2.187500 0.000000 0.500000 
2.500000 0.000000 0.500000 
2.812500 0.000000 0.500000 
3.125000 0.000000 0.500000 
3.437500 0.000000 0.500000 
3.750000 0.000000 0.500000 
4.062500 0.000000 0.500000 
4.375000 0.000000 0.500000 
4.687500 0.000000 0.500000 
5.000000 0.000000 0.500000 
0.000000 0.250000 0.500000 
0.312500 0.250000 0.500000 
0.625000 0.250000 0.500000 
0.937500 0.250000 0.500000 
1.250000 0.250000 0.500000 
1.562500 0.250000 0.500000 
1.875000 0.250000 0.500000 
2.187500 0.250000 0.500000 
2.500000 0.250000 0.500000 
2.812500 0.250000 0.500000 
3.125000 0.250000 0.500000 
3.437500 0.250000 0.500000 
3.750000 0.250000 0.500000 
4.062500 0.250000 0.500000 
4.375000 0.250000 0.500000 
4.687500 0.250000 0.500000 
5.000000 0.250000 0.500000 
0.000000 0.500000 0.500000 
0.312500 0.500000 0.500000 
0.625000 0.500000 0.500000 
0.937500 0.500000 0.500000 
1.250000 0.500000 0.500000 
1.562500 0.500000 0.500000 
1.875000 0.500000 0.500000 
2.187500 0.500000 0.500000 
2.500000 0.500000 0.500000 
2.812500 0.500000 0.500000 
3.125000 0.500000 0.500000 
3.437500 0.500000 0.500000 
3.750000 0.500000 0.500000 
4.062500 0.500000 0.500000 
4.375000 0.500000 0.500000 
4.687500 0.500000 0.500000 
5.000000 0.500000 0.500000 
0.000000 0.750000 0.500000 
0.312500 0.750000 0.500000 
0.625000 0.750000 0.500000 
0.937500 0.750000 0.500000 
1.250000 0.750000 0.500000 
1.562500 0.750000 0.500000 
1.875000 0.750000 0.500000 
2.187500 0.750000 0.500000 
2.500000 0.750000 0.500000 
2.812500 0.750000 0.500000 
3.125000 0.750000 0.500000 
3.437500 0.750000 0.500000 
3.750000 0.750000 0.500000 
4.062500 0.750000 0.500000 
4.375000 0.750000 0.500000 
4.687500 0.750000 0.500000 
5.000000 0.750000 0.500000 
0.000000 1.000000 0.500000 
0.312500 1.000000 0.500000 
0.625000 1.000000 0.500000 
0.937500 1.000000 0.500000 
1.250000 1.000000 0.500000 
1.562500 1.000000 0.500000 
1.875000 1.000000 0.500000 
2.187500 1.000000 0.500000 
2.500000 1.000000 0.500000 
2.812500 1.000000 0.500000 
3.125000 1.000000 0.500000 
3.437500 1.000000 0.500000 
3.750000 1.000000 0.500000 
4.062500 1.000000 0.500000 
4.375000 1.000000 0.500000 
4.687500 1.000000 0.500000 
5.000000 1.000000 0.500000 
0.000000 0.000000 0.750000 
0.312500 0.000000 0.750000 
0.625000 0.000000 0.750000 
0.937500 0.000000 0.750000 
1.250000 0.000000 0.750000 
1.562500 0.000000 0.750000 
1.875000 0.000000 0.750000 
2.187500 0.000000 0.750000 
2.500000 0.000000 0.750000 
2.812500 0.000000 0.750000 
3.125000 0.000000 0.750000 
3.437500 0.000000 0.750000 
3.750000 0.000000 0.750000 
4.062500 0.000000 0.750000 
4.375000 0.000000 0.750000 
4.687500 0.000000 0.750000 
5.000000 0.000000 0.750000 
0.000000 0.250000 0.750000 
0.312500 0.250000 0.750000 
0.625000 0.250000 0.750000 
0.937500 0.250000 0.750000 
1.250000 0.250000 0.750000 
1.562500 0.250000 0.750000 
1.875000 0.250000 0.750000 
2.187500 0.250000 0.750000 
2.500000 0.250000 0.750000 
2.812500 0.250000 0.750000 
3.125000 0.250000 0.750000 
3.437500 0.250000 0.750000 
3.750000 0.250000 0.750000 
4.062500 0.250000 0.750000 
4.375000 0.250000 0.750000 
4.687500 0.250000 0.750000 
5.000000 0.250000 0.750000 
0.000000 0.500000 0.750000 
0.312500 0.500000 0.750000 
0.625000 0.500000 0.750000 
0.937500 0.500000 0.750000 
1.250000 0.500000 0.750000 
1.562500 0.500000 0.750000 
1.875000 0.500000 0.750000 
2.187500 0.500000 0.750000 
2.500000 0.500000 0.750000 
2.812500 0.500000 0.750000 
3.125000 0.500000 0.750000 
3.437500 0.500000 0.750000 
3.750000 0.500000 0.750000 
4.062500 0.500000 0.750000 
4.375000 0.500000 0.750000 
4.687500 0.500000 0.750000 
5.000000 0.500000 0.750000 
0.000000 0.750000 0.750000 
0.312500 0.750000 0.750000 
0.625000 0.750000 0.750000 
0.937500 0.750000 0.750000 
1.250000 0.750000 0.750000 
1.562500 0.750000 0.750000 
1.875000 0.750000 0.750000 
2.187500 0.750000 0.750000 
2.500000 0.750000 0.750000 
2.812500 0.750000 0.750000 
3.125000 0.750000 0.750000 
3.437500 0.750000 0.750000 
3.750000 0.750000 0.750000 
4.062500 0.750000 0.750000 
4.375000 0.750000 0.750000 
4.687500 0.750000 0.750000 
5.000000 0.750000 0.750000 
0.000000 1.000000 0.750000 
0.312500 1.000000 0.750000 
0.625000 1.000000 0.750000 
0.937500 1.000000 0.750000 
1.250000 1.000000 0.750000 
1.562500 1.000000 0.750000 
1.875000 1.000000 0.750000 
2.187500 1.000000 0.750000 
2.500000 1.000000 0.750000 
2.812500 1.000000 0.750000 
3.125000 1.000000 0.750000 
3.437500 1.000000 0.750000 
3.750000 1.000000 0.750000 
4.062500 1.000000 0.750000 
4.375000 1.000000 0.750000 
4.687500 1.000000 0.750000 
5.000000 1.000000 0.750000 
0.000000 0.000000 1.000000 
0.312500 0.000000 1.000000 
0.625000 0.000000 1.000000 
0.937500 0.000000 1.000000 
1.250000 0.000000 1.000000 
1.562500 0.000000 1.000000 
1.875000 0.000000 1.000000 
2.187500 0.000000 1.000000 
2.500000 0.000000 1.000000 
[...]
<PointData  Vectors="sigma"> 
<DataArray  type="Float64"  Name="sigma" NumberOfComponents="7" format="ascii"> 
-24.726715   -10.597164   -10.597164   -5.205016   0.000000   -2.584623   17.348246   
-12.993144   0.203966   0.037803   0.097112   -0.104825   0.292020   13.126901   
-13.698795   0.222774   0.265483   0.045369   0.031550   0.000458   13.943301   
-13.608261   -0.142955   -0.180998   -0.014693   -0.026139   -0.018148   13.446462   
-13.060113   0.069260   0.093174   0.018664   0.015970   -0.006017   13.141419   
-12.678921   -0.033064   -0.047423   0.004856   -0.010140   -0.009407   12.638709   
-12.168167   0.014750   0.023418   0.010037   0.005934   -0.010268   12.187283   
-11.723102   -0.006368   -0.011511   0.008448   -0.003368   -0.008185   11.714182   
-11.242124   0.002603   0.005618   0.008797   0.001848   -0.010190   11.246259   
-10.779857   -0.000991   -0.002737   0.008813   -0.000984   -0.008657   10.778014   
-10.308061   0.000335   0.001329   0.008744   0.000510   -0.009705   10.308918   
-9.841059   -0.000087   -0.000636   0.008781   -0.000258   -0.009031   9.840722   
-9.371647   0.000007   0.000288   0.008795   0.000128   -0.009457   9.371822   
-8.903484   -0.000013   -0.000116   0.008724   -0.000065   -0.009177   8.903446   
-8.434087   0.000076   0.000013   0.008808   0.000019   -0.009343   8.434161   
-7.964395   0.000892   0.000127   0.008669   -0.000162   -0.009412   7.964935   
-7.517073   -0.012711   0.004978   0.032544   0.001889   -0.015584   7.513483   
-16.546815   -4.320566   -4.040819   -1.007264   -0.000408   -1.869284   13.513171   
-15.321297   -2.307729   -1.963877   -0.620077   -0.000912   -0.877210   13.768718   
-13.976270   -0.175884   0.071202   -0.104462   -0.000982   0.058057   13.934183   
-13.612416   -0.032386   0.001549   0.032516   -0.000330   -0.001498   13.597716   
-13.125996   -0.002413   -0.005866   0.038190   -0.000145   -0.000970   13.122115   
-12.651948   0.001064   0.003548   0.034459   -0.000032   0.001056   12.654421   
-12.183958   0.000015   -0.001776   0.033226   0.000007   0.000087   12.183220   
-11.714632   0.000211   0.000924   0.032854   -0.000016   0.000453   11.715340   
-11.246457   -0.000092   -0.000475   0.032831   0.000012   0.000363   11.246319   
-10.777631   0.000068   0.000248   0.032816   -0.000009   0.000346   10.777939   
-10.309172   -0.000044   -0.000132   0.032823   0.000006   0.000390   10.309241   
-9.840498   0.000031   0.000071   0.032817   -0.000003   0.000349   9.840713   
-9.371939   0.000001   -0.000036   0.032805   0.000002   0.000379   9.372093   
-8.903355   0.000040   0.000014   0.032740   -0.000001   0.000359   8.903563   
-8.434633   -0.000128   -0.000012   0.032568   0.000009   0.000377   8.434752   
-7.964880   -0.001171   -0.000098   0.030769   -0.000014   0.000595   7.964425   
-7.729651   -0.002087   -0.000235   0.029089   -0.000042   0.000823   7.728656   
-16.799879   -4.717019   -4.144183   0.000000   0.000000   -2.011017   13.487304   
-15.464777   -2.660662   -2.011715   0.000000   0.000000   -0.949624   13.698430   
-14.019935   -0.354059   0.076630   0.000000   0.000000   0.057131   13.892680   
-13.652223   -0.064963   0.001698   0.000000   0.000000   -0.000671   13.621237   
-13.140068   -0.008532   -0.006623   0.000000   0.000000   -0.000589   13.132513   
-12.654546   0.002434   0.003967   0.000000   -0.000000   0.001544   12.657754   
-12.184878   -0.000722   -0.001984   0.000000   -0.000000   0.000609   12.183527   
-11.714370   0.000721   0.001021   0.000000   -0.000000   0.000933   11.715242   
-11.246653   -0.000316   -0.000500   0.000000   -0.000000   0.000871   11.246245   
-10.777509   0.000172   0.000243   0.000000   -0.000000   0.000838   10.777716   
-10.309238   -0.000085   -0.000116   0.000000   0.000000   0.000889   10.309138   
-9.840461   0.000048   0.000055   0.000000   -0.000000   0.000845   9.840513   
-9.371990   0.000002   -0.000028   0.000000   -0.000000   0.000876   9.371977   
-8.903431   0.000081   0.000022   0.000000   -0.000000   0.000856   8.903483   
-8.435542   0.000056   0.000004   -0.000000   -0.000000   0.000854   8.435572   
-7.970903   -0.000676   -0.000624   -0.000000   -0.000000   0.001816   7.970254   
-7.739952   -0.001361   -0.001248   -0.000000   -0.000000   0.002810   7.738649   
-16.546815   -4.320566   -4.040819   1.007264   0.000408   -1.869284   13.513171   
-15.321297   -2.307729   -1.963877   0.620077   0.000912   -0.877210   13.768718   
-13.976270   -0.175884   0.071202   0.104462   0.000982   0.058057   13.934183   
-13.612416   -0.032386   0.001549   -0.032516   0.000330   -0.001498   13.597716   
-13.125996   -0.002413   -0.005866   -0.038190   0.000145   -0.000970   13.122115   
-12.651948   0.001064   0.003548   -0.034459   0.000032   0.001056   12.654421   
-12.183958   0.000015   -0.001776   -0.033226   -0.000007   0.000087   12.183220   
-11.714632   0.000211   0.000924   -0.032854   0.000016   0.000453   11.715340   
-11.246457   -0.000092   -0.000475   -0.032831   -0.000012   0.000363   11.246319   
-10.777631   0.000068   0.000248   -0.032816   0.000009   0.000346   10.777939   
-10.309172   -0.000044   -0.000132   -0.032823   -0.000006   0.000390   10.309241   
-9.840498   0.000031   0.000071   -0.032817   0.000003   0.000349   9.840713   
-9.371939   0.000001   -0.000036   -0.032805   -0.000002   0.000379   9.372093   
-8.903355   0.000040   0.000014   -0.032740   0.000001   0.000359   8.903563   
-8.434633   -0.000128   -0.000012   -0.032568   -0.000009   0.000377   8.434752   
-7.964880   -0.001171   -0.000098   -0.030769   0.000014   0.000595   7.964425   
-7.729651   -0.002087   -0.000235   -0.029089   0.000042   0.000823   7.728656   
-12.993144   0.203966   0.037803   -0.097112   0.104825   0.292020   13.126901   
-19.212755   -5.187195   -5.165840   2.579824   -0.015775   -1.292083   15.645773   
-13.300702   0.030506   -0.071598   -0.041209   0.065482   0.136936   13.286682   
-13.379454   0.146017   0.179328   -0.032016   -0.023760   -0.002780   13.542360   
-13.143591   -0.088009   -0.114210   0.004919   0.018140   -0.013778   13.042586   
-12.614140   0.042005   0.058296   -0.014350   -0.010952   -0.008143   12.664351   
-12.201012   -0.019716   -0.029467   -0.006652   0.006754   -0.008796   12.176446   
-11.705145   0.008677   0.014518   -0.009417   -0.003891   -0.010229   11.716771   
-11.251479   -0.003680   -0.007124   -0.008631   0.002176   -0.008421   11.246098   
-10.775092   0.001469   0.003473   -0.008771   -0.001179   -0.009948   10.777589   
-10.310458   -0.000539   -0.001687   -0.008797   0.000621   -0.008844   10.309368   
-9.839854   0.000171   0.000809   -0.008770   -0.000319   -0.009581   9.840370   
-9.372272   -0.000050   -0.000376   -0.008752   0.000162   -0.009104   9.372084   
-8.902867   0.000042   0.000150   -0.008802   -0.000074   -0.009400   8.902991   
-8.433939   0.000439   0.000005   -0.008696   0.000114   -0.009294   8.434191   
-7.975580   -0.006318   0.002495   -0.020676   -0.000954   -0.012464   7.973822   
-7.964395   0.000892   0.000127   -0.008669   0.000162   -0.009412   7.964935   
-11.084960   -4.750697   -4.750697   -2.882140   0.000000   1.289789   8.368617   
-6.558420   0.115562   0.307858   0.127638   0.026685   0.216368   6.786298   
-6.811544   0.078267   0.060129   0.027464   -0.006227   -0.179657   6.887965   
-6.748629   -0.048112   0.009953   -0.013403   0.004015   -0.288558   6.748315   
-6.542321   0.020865   -0.000027   0.005632   -0.003119   -0.332360   6.578012   
-6.327947   -0.009026   0.001328   -0.002797   0.001835   -0.327226   6.349454   
-6.090052   0.003433   -0.000737   0.000350   -0.001110   -0.333829   6.118783   
-5.858240   -0.001195   0.000448   -0.000688   0.000617   -0.330589   5.885786   
-5.622849   0.000328   -0.000242   -0.000394   -0.000331   -0.332312   5.652275   
-5.388992   -0.000033   0.000128   -0.000458   0.000170   -0.331431   5.419528   
-5.154514   -0.000045   -0.000065   -0.000443   -0.000084   -0.331857   5.186409   
-4.920291   0.000049   0.000029   -0.000461   0.000040   -0.331656   4.953750   
-4.685929   -0.000030   -0.000001   -0.000424   -0.000020   -0.331739   4.721010   
-4.451702   -0.000007   -0.000034   -0.000493   0.000011   -0.331733   4.488609   
-4.216834   0.000067   0.000137   -0.000395   -0.000010   -0.331825   4.255922   
-3.981721   0.000291   0.000505   -0.000571   0.000056   -0.332523   4.023554   
-3.753168   -0.004196   -0.003100   0.004323   -0.000657   -0.328451   3.792440   
-7.041233   -1.577808   -1.429228   -0.468763   0.067830   -0.141954   5.685950   
-7.175620   -0.895992   -0.735561   -0.258682   0.084484   -0.240627   6.449481   
-7.125850   -0.121459   -0.022857   -0.007783   0.071966   -0.309776   7.078114   
-6.808627   -0.010275   0.001933   0.026399   0.027435   -0.277299   6.821874   
-6.560896   0.002602   0.001411   0.014762   0.007447   -0.274715   6.580230   
-6.326484   -0.000190   -0.001282   0.008748   0.001605   -0.274454   6.343614   
-6.091309   0.000788   0.000564   0.007286   0.000250   -0.274107   6.110485   
-5.857731   -0.000253   -0.000323   0.006868   0.000042   -0.274243   5.876698   
-5.622981   0.000153   0.000153   0.006856   -0.000006   -0.274172   5.643181   
-5.388957   -0.000067   -0.000069   0.006831   0.000003   -0.274212   5.409810   
-5.154511   0.000028   0.000029   0.006842   -0.000002   -0.274193   5.176407   
-4.920288   -0.000009   -0.000011   0.006835   0.000001   -0.274203   4.943186   
-4.685950   0.000014   0.000003   0.006826   0.000006   -0.274198   4.710009   
-4.451675   0.000026   -0.000008   0.006773   0.000036   -0.274200   4.476997   
-4.217287   0.000013   0.000004   0.006578   0.000134   -0.274204   4.244011   
-3.982536   -0.000166   0.000151   0.005779   0.000288   -0.274447   4.010861   
-3.865036   -0.000325   0.000273   0.005132   0.000369   -0.274683   3.894223   
-6.989077   -1.706720   -1.410734   0.000000   0.000000   -0.336339   5.474605   
-7.185718   -1.042766   -0.731589   0.000000   0.000000   -0.398197   6.348322   
-7.190525   -0.209953   -0.026143   0.000000   0.000000   -0.388518   7.111094   
-6.847909   -0.019543   0.003113   0.000000   0.000000   -0.294947   6.858992   
-6.573075   0.001999   0.001534   0.000000   0.000000   -0.268318   6.591259   
-6.329027   0.001281   -0.000900   0.000000   0.000000   -0.261576   6.345423   
-6.092001   0.000428   0.000351   0.000000   0.000000   -0.259701   6.108988   
-5.857600   0.000099   -0.000170   0.000000   0.000000   -0.259671   5.874820   
-5.623114   -0.000006   0.000063   0.000000   0.000000   -0.259519   5.641095   
-5.388869   0.000015   -0.000020   0.000000   0.000000   -0.259592   5.407609   
-5.154561   -0.000010   0.000003   0.000000   0.000000   -0.259554   5.174146   
-4.920258   0.000010   0.000002   0.000000   0.000000   -0.259574   4.940785   
-4.685987   0.000013   -0.000004   0.000000   0.000000   -0.259559   4.707534   
-4.451743   0.000060   0.000003   -0.000000   0.000000   -0.259528   4.474443   
-4.217909   0.000084   -0.000058   -0.000000   0.000000   -0.259352   4.241810   
-3.985288   -0.000223   -0.000648   -0.000000   0.000000   -0.258960   4.010055   
-3.869404   -0.000525   -0.001178   -0.000000   0.000000   -0.258708   3.894439   
-7.041233   -1.577808   -1.429228   0.468763   -0.067830   -0.141954   5.685950   
-7.175620   -0.895992   -0.735561   0.258682   -0.084484   -0.240627   6.449481   
-7.125850   -0.121459   -0.022857   0.007783   -0.071966   -0.309776   7.078114   
-6.808627   -0.010275   0.001933   -0.026399   -0.027435   -0.277299   6.821874   
-6.560896   0.002602   0.001411   -0.014762   -0.007447   -0.274715   6.580230   
-6.326484   -0.000190   -0.001282   -0.008748   -0.001605   -0.274454   6.343614   
-6.091309   0.000788   0.000564   -0.007286   -0.000250   -0.274107   6.110485   
-5.857731   -0.000253   -0.000323   -0.006868   -0.000042   -0.274243   5.876698   
-5.622981   0.000153   0.000153   -0.006856   0.000006   -0.274172   5.643181   
-5.388957   -0.000067   -0.000069   -0.006831   -0.000003   -0.274212   5.409810   
-5.154511   0.000028   0.000029   -0.006842   0.000002   -0.274193   5.176407   
-4.920288   -0.000009   -0.000011   -0.006835   -0.000001   -0.274203   4.943186   
-4.685950   0.000014   0.000003   -0.006826   -0.000006   -0.274198   4.710009   
-4.451675   0.000026   -0.000008   -0.006773   -0.000036   -0.274200   4.476997   
-4.217287   0.000013   0.000004   -0.006578   -0.000134   -0.274204   4.244011   
-3.982536   -0.000166   0.000151   -0.005779   -0.000288   -0.274447   4.010861   
-3.865036   -0.000325   0.000273   -0.005132   -0.000369   -0.274683   3.894223   
-6.558420   0.115562   0.307858   -0.127638   -0.026685   0.216368   6.786298   
-8.948252   -2.336215   -2.345284   1.427338   0.003113   0.555066   7.628291   
-6.653524   0.033725   0.158906   -0.057117   -0.015350   -0.036095   6.767307   
-6.676933   0.049566   0.030051   -0.016548   0.004673   -0.256009   6.732989   
-6.538288   -0.028569   0.005641   0.008100   -0.002925   -0.307892   6.548884   
-6.316187   0.012149   -0.000382   -0.002991   0.002115   -0.333095   6.348398   
-6.093094   -0.005110   0.000888   0.001743   -0.001226   -0.328907   6.117620   
-5.856451   0.001880   -0.000489   0.000022   0.000721   -0.333071   5.885529   
-5.623616   -0.000614   0.000288   0.000573   -0.000394   -0.331010   5.652657   
-5.388682   0.000142   -0.000154   0.000419   0.000208   -0.332084   5.419342   
-5.154642   0.000008   0.000078   0.000460   -0.000105   -0.331544   5.186639   
-4.920221   -0.000038   -0.000033   0.000433   0.000052   -0.331798   4.953709   
-4.685997   0.000021   -0.000003   0.000477   -0.000026   -0.331695   4.721179   
-4.451381   0.000018   0.000068   0.000409   0.000015   -0.331782   4.488466   
-4.216711   0.000142   0.000236   0.000532   -0.000034   -0.332128   4.256081   
-3.985001   -0.002064   -0.001481   -0.001964   0.000334   -0.330138   4.024181   
-3.981721   0.000291   0.000505   0.000571   -0.000056   -0.332523   4.023554   
-0.000000   -0.000000   -0.000000   -0.000000   0.000000   2.065098   3.576854   
-0.000000   0.000000   -0.000000   0.000000   0.032428   0.094478   0.173012   
-0.000000   0.000000   0.000000   0.000000   -0.007576   -0.270781   0.469189   
-0.000000   -0.000000   -0.000000   -0.000000   0.003693   -0.393157   0.680998   
-0.000000   0.000000   0.000000   0.000000   -0.003205   -0.420391   0.728160   
-0.000000   -0.000000   -0.000000   -0.000000   0.001850   -0.428738   0.742604   
-0.000000   0.000000   0.000000   0.000000   -0.001170   -0.429005   0.743062   
-0.000000   -0.000000   -0.000000   -0.000000   0.000689   -0.429359   0.743672   
-0.000000   -0.000000   0.000000   -0.000000   -0.000404   -0.429178   0.743359   
-0.000000   0.000000   0.000000   0.000000   0.000235   -0.429273   0.743523   
-0.000000   -0.000000   -0.000000   0.000000   -0.000135   -0.429209   0.743411   
-0.000000   0.000000   0.000000   -0.000000   0.000077   -0.429242   0.743468   
-0.000000   -0.000000   0.000000   0.000000   -0.000045   -0.429224   0.743438   
-0.000000   0.000000   -0.000000   -0.000000   0.000024   -0.429254   0.743489   
-0.000000   -0.000000   0.000000   0.000000   -0.000014   -0.429404   0.743749   
-0.000000   -0.000000   -0.000000   -0.000000   0.000057   -0.430039   0.744849   
-0.000000   -0.000000   -0.000000   -0.000000   0.000016   -0.431306   0.747043   
-0.000000   -0.000000   -0.000000   0.000000   0.097695   0.157121   1.200996   
-0.000000   -0.000000   -0.000000   0.000000   0.122516   -0.149535   1.016319   
-0.000000   0.000000   -0.000000   -0.000000   0.104860   -0.421605   0.756693   
-0.000000   -0.000000   0.000000   0.000000   0.039756   -0.379028   0.662615   
-0.000000   -0.000000   0.000000   0.000000   0.010708   -0.368650   0.638982   
-0.000000   0.000000   0.000000   0.000000   0.002345   -0.367302   0.636232   
-0.000000   0.000000   0.000000   0.000000   0.000343   -0.367842   0.637123   
-0.000000   0.000000   0.000000   0.000000   0.000088   -0.367646   0.636783   
-0.000000   -0.000000   0.000000   0.000000   -0.000024   -0.367794   0.637038   
-0.000000   -0.000000   0.000000   0.000000   0.000014   -0.367720   0.636910   
-0.000000   -0.000000   0.000000   -0.000000   -0.000009   -0.367761   0.636981   
-0.000000   -0.000000   0.000000   -0.000000   0.000005   -0.367740   0.636945   
-0.000000   -0.000000   0.000000   0.000000   0.000007   -0.367752   0.636965   
-0.000000   -0.000000   0.000000   0.000000   0.000054   -0.367752   0.636965   
-0.000000   0.000000   0.000000   -0.000000   0.000216   -0.367756   0.636972   
0.000000   0.000000   0.000000   0.000000   0.000516   -0.367736   0.636938   
0.000000   0.000000   0.000000   0.000000   0.000688   -0.367721   0.636912   
0.000000   0.000000   0.000000   0.000000   0.000000   -0.047737   1.166745   
0.000000   0.000000   0.000000   0.000000   0.000000   -0.325858   1.106434   
0.000000   0.000000   -0.000000   -0.000000   -0.000000   -0.520780   0.902018   
0.000000   -0.000000   -0.000000   0.000000   -0.000000   -0.404012   0.699769   
0.000000   0.000000   -0.000000   0.000000   -0.000000   -0.361164   0.625554   
0.000000   -0.000000   -0.000000   0.000000   -0.000000   -0.350930   0.607829   
0.000000   -0.000000   -0.000000   -0.000000   -0.000000   -0.349420   0.605213   
0.000000   -0.000000   -0.000000   -0.000000   -0.000000   -0.348971   0.604435   
0.000000   -0.000000   -0.000000   0.000000   -0.000000   -0.349019   0.604518   
0.000000   -0.000000   -0.000000   0.000000   -0.000000   -0.348983   0.604456   
-0.000000   -0.000000   -0.000000   -0.000000   -0.000000   -0.349000   0.604486   
-0.000000   -0.000000   -0.000000   -0.000000   -0.000000   -0.348994   0.604476   
-0.000000   -0.000000   -0.000000   -0.000000   -0.000000   -0.348990   0.604468   
-0.000000   -0.000000   -0.000000   -0.000000   -0.000000   -0.348943   0.604388   
-0.000000   -0.000000   -0.000000   -0.000000   -0.000000   -0.348726   0.604010   
-0.000000   -0.000000   -0.000000   -0.000000   0.000000   -0.348115   0.602953   
-0.000000   -0.000000   -0.000000   -0.000000   0.000000   -0.347679   0.602198   
0.000000   0.000000   0.000000   -0.000000   -0.097695   0.157121   1.200996   
0.000000   0.000000   0.000000   -0.000000   -0.122516   -0.149535   1.016319   
0.000000   0.000000   0.000000   -0.000000   -0.104860   -0.421605   0.756693   
0.000000   0.000000   0.000000   0.000000   -0.039756   -0.379028   0.662615   
0.000000   -0.000000   0.000000   0.000000   -0.010708   -0.368650   0.638982   
0.000000   0.000000   0.000000   -0.000000   -0.002345   -0.367302   0.636232   
0.000000   0.000000   0.000000   -0.000000   -0.000343   -0.367842   0.637123   
0.000000   0.000000   -0.000000   -0.000000   -0.000088   -0.367646   0.636783   
0.000000   0.000000   -0.000000   -0.000000   0.000024   -0.367794   0.637038   
0.000000   0.000000   0.000000   -0.000000   -0.000014   -0.367720   0.636910   
0.000000   -0.000000   0.000000   -0.000000   0.000009   -0.367761   0.636981   
0.000000   0.000000   0.000000   -0.000000   -0.000005   -0.367740   0.636945   
0.000000   0.000000   0.000000   -0.000000   -0.000007   -0.367752   0.636965   
0.000000   0.000000   0.000000   -0.000000   -0.000054   -0.367752   0.636965   
0.000000   0.000000   0.000000   -0.000000   -0.000216   -0.367756   0.636972   
0.000000   -0.000000   -0.000000   -0.000000   -0.000516   -0.367736   0.636938   
0.000000   -0.000000   -0.000000   -0.000000   -0.000688   -0.367721   0.636912   
0.000000   0.000000   0.000000   0.000000   -0.032428   0.094478   0.173012   
0.000000   0.000000   0.000000   -0.000000   0.003788   0.897158   2.023022   
0.000000   -0.000000   0.000000   0.000000   -0.018060   -0.149339   0.427005   
0.000000   -0.000000   -0.000000   0.000000   0.005390   -0.345586   0.598675   