<VTKFile type="UnstructuredGrid"  version="0.1"   > 
<UnstructuredGrid> 
<Piece  NumberOfPoints="  1156" NumberOfCells=" 1089"> 
<Points> 
<DataArray  type="Float64"  NumberOfComponents="3"  format="ascii" > 
0.000000 0.000000 0.0 
0.547619 0.000000 0.0 
0.857143 0.000000 0.0 
1.142857 0.000000 0.0 
1.428571 0.000000 0.0 
1.714286 0.000000 0.0 
2.000000 0.000000 0.0 
2.285714 0.000000 0.0 
2.571429 0.000000 0.0 
2.857143 0.000000 0.0 
3.142857 0.000000 0.0 
3.428571 0.000000 0.0 
3.714286 0.000000 0.0 
4.000000 0.000000 0.0 
4.285714 0.000000 0.0 
4.571429 0.000000 0.0 
4.857143 0.000000 0.0 
5.142857 0.000000 0.0 
5.428571 0.000000 0.0 
5.714286 0.000000 0.0 
6.000000 0.000000 0.0 
6.285714 0.000000 0.0 
6.571429 0.000000 0.0 
6.857143 0.000000 0.0 
7.142857 0.000000 0.0 
7.428571 0.000000 0.0 
7.714286 0.000000 0.0 
8.000000 0.000000 0.0 
8.285714 0.000000 0.0 
8.571429 0.000000 0.0 
8.857143 0.000000 0.0 
9.142857 0.000000 0.0 
9.452381 0.000000 0.0 
10.000000 0.000000 0.0 
0.000000 0.547619 0.0 
0.547619 0.547619 0.0 
0.857143 0.547619 0.0 
1.142857 0.547619 0.0 
1.428571 0.547619 0.0 
1.714286 0.547619 0.0 
2.000000 0.547619 0.0 
2.285714 0.547619 0.0 
2.571429 0.547619 0.0 
2.857143 0.547619 0.0 
3.142857 0.547619 0.0 
3.428571 0.547619 0.0 
3.714286 0.547619 0.0 
4.000000 0.547619 0.0 
4.285714 0.547619 0.0 
4.571429 0.547619 0.0 
4.857143 0.547619 0.0 
5.142857 0.547619 0.0 
5.428571 0.547619 0.0 
5.714286 0.547619 0.0 
6.000000 0.547619 0.0 
6.285714 0.547619 0.0 
6.571429 0.547619 0.0 
6.857143 0.547619 0.0 
7.142857 0.547619 0.0 
7.428571 0.547619 0.0 
7.714286 0.547619 0.0 
8.000000 0.547619 0.0 
8.285714 0.547619 0.0 
8.571429 0.547619 0.0 
8.857143 0.547619 0.0 
9.142857 0.547619 0.0 
9.452381 0.547619 0.0 
10.000000 0.547619 0.0 
0.000000 0.857143 0.0 
0.547619 0.857143 0.0 
0.857143 0.857143 0.0 
1.142857 0.857143 0.0 
1.428571 0.857143 0.0 
1.714286 0.857143 0.0 
2.000000 0.857143 0.0 
2.285714 0.857143 0.0 
2.571429 0.857143 0.0 
2.857143 0.857143 0.0 
3.142857 0.857143 0.0 
3.428571 0.857143 0.0 
3.714286 0.857143 0.0 
4.000000 0.857143 0.0 
4.285714 0.857143 0.0 
4.571429 0.857143 0.0 
4.857143 0.857143 0.0 
5.142857 0.857143 0.0 
5.428571 0.857143 0.0 
5.714286 0.857143 0.0 
6.000000 0.857143 0.0 
6.285714 0.857143 0.0 
6.571429 0.857143 0.0 
6.857143 0.857143 0.0 
7.142857 0.857143 0.0 
7.428571 0.857143 0.0 
7.714286 0.857143 0.0 
8.000000 0.857143 0.0 
8.285714 0.857143 0.0 
8.571429 0.857143 0.0 
8.857143 0.857143 0.0 
9.142857 0.857143 0.0 
9.452381 0.857143 0.0 
10.000000 0.857143 0.0 
0.000000 1.142857 0.0 
0.547619 1.142857 0.0 
0.857143 1.142857 0.0 
1.142857 1.142857 0.0 
1.428571 1.142857 0.0 
1.714286 1.142857 0.0 
2.000000 1.142857 0.0 
2.285714 1.142857 0.0 
2.571429 1.142857 0.0 
2.857143 1.142857 0.0 
3.142857 1.142857 0.0 
3.428571 1.142857 0.0 
3.714286 1.142857 0.0 
4.000000 1.142857 0.0 
4.285714 1.142857 0.0 
4.571429 1.142857 0.0 
4.857143 1.142857 0.0 
5.142857 1.142857 0.0 
5.428571 1.142857 0.0 
5.714286 1.142857 0.0 
6.000000 1.142857 0.0 
6.285714 1.142857 0.0 
6.571429 1.142857 0.0 
6.857143 1.142857 0.0 
7.142857 1.142857 0.0 
7.428571 1.142857 0.0 
7.714286 1.142857 0.0 
8.000000 1.142857 0.0 
8.285714 1.142857 0.0 
8.571429 1.142857 0.0 
8.857143 1.142857 0.0 
9.142857 1.142857 0.0 
9.452381 1.142857 0.0 
10.000000 1.142857 0.0 
0.000000 1.428571 0.0 
0.547619 1.428571 0.0 
0.857143 1.428571 0.0 
1.142857 1.428571 0.0 
1.428571 1.428571 0.0 
1.714286 1.428571 0.0 
2.000000 1.428571 0.0 
2.285714 1.428571 0.0 
2.571429 1.428571 0.0 
2.857143 1.428571 0.0 
3.142857 1.428571 0.0 
3.428571 1.428571 0.0 
3.714286 1.428571 0.0 
4.000000 1.428571 0.0 
4.285714 1.428571 0.0 
4.571429 1.428571 0.0 
4.857143 1.428571 0.0 
5.142857 1.428571 0.0 
5.428571 1.428571 0.0 
5.714286 1.428571 0.0 
6.000000 1.428571 0.0 
6.285714 1.428571 0.0 
6.571429 1.428571 0.0 
6.857143 1.428571 0.0 
7.142857 1.428571 0.0 
7.428571 1.428571 0.0 
7.714286 1.428571 0.0 
8.000000 1.428571 0.0 
8.285714 1.428571 0.0 
8.571429 1.428571 0.0 
8.857143 1.428571 0.0 
9.142857 1.428571 0.0 
9.452381 1.428571 0.0 
10.000000 1.428571 0.0 
0.000000 1.714286 0.0 
0.547619 1.714286 0.0 
0.857143 1.714286 0.0 
1.142857 1.714286 0.0 
1.428571 1.714286 0.0 
1.714286 1.714286 0.0 
2.000000 1.714286 0.0 
2.285714 1.714286 0.0 
2.571429 1.714286 0.0 
2.857143 1.714286 0.0 
3.142857 1.714286 0.0 
3.428571 1.714286 0.0 
3.714286 1.714286 0.0 
4.000000 1.714286 0.0 
4.285714 1.714286 0.0 
4.571429 1.714286 0.0 
4.857143 1.714286 0.0 
5.142857 1.714286 0.0 
5.428571 1.714286 0.0 
5.714286 1.714286 0.0 
6.000000 1.714286 0.0 
6.285714 1.714286 0.0 
6.571429 1.714286 0.0 
6.857143 1.714286 0.0 
7.142857 1.714286 0.0 
7.428571 1.714286 0.0 
7.714286 1.714286 0.0 
8.000000 1.714286 0.0 
8.285714 1.714286 0.0 
8.571429 1.714286 0.0 
8.857143 1.714286 0.0 
9.142857 1.714286 0.0 
9.452381 1.714286 0.0 
10.000000 1.714286 0.0 
0.000000 2.000000 0.0 
0.547619 2.000000 0.0 
0.857143 2.000000 0.0 
1.142857 2.000000 0.0 
1.428571 2.000000 0.0 
1.714286 2.000000 0.0 
2.000000 2.000000 0.0 
2.285714 2.000000 0.0 
2.571429 2.000000 0.0 
2.857143 2.000000 0.0 
3.142857 2.000000 0.0 
3.428571 2.000000 0.0 
3.714286 2.000000 0.0 
4.000000 2.000000 0.0 
4.285714 2.000000 0.0 
4.571429 2.000000 0.0 
4.857143 2.000000 0.0 
5.142857 2.000000 0.0 
5.428571 2.000000 0.0 
5.714286 2.000000 0.0 
6.000000 2.000000 0.0 
6.285714 2.000000 0.0 
6.571429 2.000000 0.0 
6.857143 2.000000 0.0 
7.142857 2.000000 0.0 
7.428571 2.000000 0.0 
7.714286 2.000000 0.0 
8.000000 2.000000 0.0 
8.285714 2.000000 0.0 
8.571429 2.000000 0.0 
8.857143 2.000000 0.0 
9.142857 2.000000 0.0 
9.452381 2.000000 0.0 
10.000000 2.000000 0.0 
0.000000 2.285714 0.0 
0.547619 2.285714 0.0 
0.857143 2.285714 0.0 
1.142857 2.285714 0.0 
1.428571 2.285714 0.0 
1.714286 2.285714 0.0 
2.000000 2.285714 0.0 
2.285714 2.285714 0.0 
2.571429 2.285714 0.0 
2.857143 2.285714 0.0 
3.142857 2.285714 0.0 
3.428571 2.285714 0.0 
3.714286 2.285714 0.0 
4.000000 2.285714 0.0 
4.285714 2.285714 0.0 
4.571429 2.285714 0.0 
4.857143 2.285714 0.0 
5.142857 2.285714 0.0 
5.428571 2.285714 0.0 
5.714286 2.285714 0.0 
6.000000 2.285714 0.0 
6.285714 2.285714 0.0 
6.571429 2.285714 0.0 
6.857143 2.285714 0.0 
7.142857 2.285714 0.0 
7.428571 2.285714 0.0 
7.714286 2.285714 0.0 
8.000000 2.285714 0.0 
8.285714 2.285714 0.0 
8.571429 2.285714 0.0 
8.857143 2.285714 0.0 
9.142857 2.285714 0.0 
9.452381 2.285714 0.0 
10.000000 2.285714 0.0 
0.000000 2.571429 0.0 
0.547619 2.571429 0.0 
0.857143 2.571429 0.0 
1.142857 2.571429 0.0 
1.428571 2.571429 0.0 
1.714286 2.571429 0.0 
2.000000 2.571429 0.0 
2.285714 2.571429 0.0 
2.571429 2.571429 0.0 
2.857143 2.571429 0.0 
3.142857 2.571429 0.0 
3.428571 2.571429 0.0 
3.714286 2.571429 0.0 
4.000000 2.571429 0.0 
4.285714 2.571429 0.0 
4.571429 2.571429 0.0 
4.857143 2.571429 0.0 
5.142857 2.571429 0.0 
5.428571 2.571429 0.0 
5.714286 2.571429 0.0 
6.000000 2.571429 0.0 
6.285714 2.571429 0.0 
6.571429 2.571429 0.0 
6.857143 2.571429 0.0 
7.142857 2.571429 0.0 
7.428571 2.571429 0.0 
7.714286 2.571429 0.0 
8.000000 2.571429 0.0 
8.285714 2.571429 0.0 
8.571429 2.571429 0.0 
8.857143 2.571429 0.0 
9.142857 2.571429 0.0 
9.452381 2.571429 0.0 
10.000000 2.571429 0.0 
0.000000 2.857143 0.0 
0.547619 2.857143 0.0 
0.857143 2.857143 0.0 
1.142857 2.857143 0.0 
1.428571 2.857143 0.0 
1.714286 2.857143 0.0 
2.000000 2.857143 0.0 
2.285714 2.857143 0.0 
2.571429 2.857143 0.0 
2.857143 2.857143 0.0 
3.142857 2.857143 0.0 
3.428571 2.857143 0.0 
3.714286 2.857143 0.0 
4.000000 2.857143 0.0 
4.285714 2.857143 0.0 
4.571429 2.857143 0.0 
4.857143 2.857143 0.0 
5.142857 2.857143 0.0 
5.428571 2.857143 0.0 
5.714286 2.857143 0.0 
6.000000 2.857143 0.0 
6.285714 2.857143 0.0 
6.571429 2.857143 0.0 
6.857143 2.857143 0.0 
7.142857 2.857143 0.0 
7.428571 2.857143 0.0 
7.714286 2.857143 0.0 
8.000000 2.857143 0.0 
8.285714 2.857143 0.0 
8.571429 2.857143 0.0 
8.857143 2.857143 0.0 
9.142857 2.857143 0.0 
9.452381 2.857143 0.0 
10.000000 2.857143 0.0 
0.000000 3.142857 0.0 
0.547619 3.142857 0.0 
0.857143 3.142857 0.0 
1.142857 3.142857 0.0 
1.428571 3.142857 0.0 
1.714286 3.142857 0.0 
2.000000 3.142857 0.0 
2.285714 3.142857 0.0 
2.571429 3.142857 0.0 
2.857143 3.142857 0.0 
3.142857 3.142857 0.0 
3.428571 3.142857 0.0 
3.714286 3.142857 0.0 
4.000000 3.142857 0.0 
4.285714 3.142857 0.0 
4.571429 3.142857 0.0 
4.857143 3.142857 0.0 
5.142857 3.142857 0.0 
5.428571 3.142857 0.0 
5.714286 3.142857 0.0 
6.000000 3.142857 0.0 
6.285714 3.142857 0.0 
6.571429 3.142857 0.0 
6.857143 3.142857 0.0 
7.142857 3.142857 0.0 
7.428571 3.142857 0.0 
7.714286 3.142857 0.0 
8.000000 3.142857 0.0 
8.285714 3.142857 0.0 
8.571429 3.142857 0.0 
8.857143 3.142857 0.0 
9.142857 3.142857 0.0 
9.452381 3.142857 0.0 
10.000000 3.142857 0.0 
0.000000 3.428571 0.0 
0.547619 3.428571 0.0 
0.857143 3.428571 0.0 
1.142857 3.428571 0.0 
1.428571 3.428571 0.0 
1.714286 3.428571 0.0 
2.000000 3.428571 0.0 
2.285714 3.428571 0.0 
2.571429 3.428571 0.0 
2.857143 3.428571 0.0 
3.142857 3.428571 0.0 
3.428571 3.428571 0.0 
3.714286 3.428571 0.0 
4.000000 3.428571 0.0 
4.285714 3.428571 0.0 
4.571429 3.428571 0.0 
4.857143 3.428571 0.0 
5.142857 3.428571 0.0 
5.428571 3.428571 0.0 
5.714286 3.428571 0.0 
6.000000 3.428571 0.0 
6.285714 3.428571 0.0 
6.571429 3.428571 0.0 
6.857143 3.428571 0.0 
7.142857 3.428571 0.0 
7.428571 3.428571 0.0 
7.714286 3.428571 0.0 
8.000000 3.428571 0.0 
8.285714 3.428571 0.0 
8.571429 3.428571 0.0 
8.857143 3.428571 0.0 
9.142857 3.428571 0.0 
9.452381 3.428571 0.0 
10.000000 3.428571 0.0 
0.000000 3.714286 0.0 
0.547619 3.714286 0.0 
0.857143 3.714286 0.0 
1.142857 3.714286 0.0 
1.428571 3.714286 0.0 
1.714286 3.714286 0.0 
2.000000 3.714286 0.0 
2.285714 3.714286 0.0 
2.571429 3.714286 0.0 
2.857143 3.714286 0.0 
3.142857 3.714286 0.0 
3.428571 3.714286 0.0 
3.714286 3.714286 0.0 
4.000000 3.714286 0.0 
4.285714 3.714286 0.0 
4.571429 3.714286 0.0 
4.857143 3.714286 0.0 
[...]
<PointData  Vectors="sigma"> 
<DataArray  type="Float64"  Name="sigma" NumberOfComponents="4" format="ascii"> 
0.077562   0.036788   0.049085   0.108370   
0.080055   0.044927   0.054529   0.117264   
0.081258   0.050667   0.057854   0.122859   
0.082143   0.056647   0.061092   0.128452   
0.082703   0.063281   0.064289   0.134202   
0.082940   0.070640   0.067406   0.140147   
0.082804   0.078746   0.070334   0.146211   
0.082272   0.087605   0.072983   0.152366   
0.081326   0.097200   0.075231   0.158544   
0.079971   0.107477   0.076956   0.164676   
0.078233   0.118343   0.078026   0.170678   
0.076162   0.129661   0.078316   0.176459   
0.073840   0.141248   0.077718   0.181916   
0.071372   0.152881   0.076148   0.186950   
0.068884   0.164303   0.073563   0.191460   
0.066517   0.175243   0.069967   0.195356   
0.064410   0.185428   0.065417   0.198563   
0.062693   0.194611   0.060023   0.201026   
0.061469   0.202586   0.053938   0.202718   
0.060811   0.209201   0.047349   0.203635   
0.060752   0.214377   0.040458   0.203801   
0.061286   0.218095   0.033472   0.203265   
0.062372   0.220406   0.026580   0.202092   
0.063943   0.221405   0.019944   0.200362   
0.065911   0.221229   0.013696   0.198161   
0.068185   0.220034   0.007930   0.195575   
0.070661   0.217986   0.002704   0.192691   
0.073265   0.215252   -0.001951   0.189584   
0.075887   0.211980   -0.006038   0.186325   
0.078517   0.208322   -0.009563   0.182977   
0.080995   0.204369   -0.012577   0.179579   
0.083456   0.200284   -0.015057   0.176193   
0.085470   0.195576   -0.017197   0.172413   
0.089112   0.187578   -0.019470   0.165976   
0.078509   0.030860   0.045739   0.104735   
0.082246   0.038968   0.051892   0.114701   
0.084076   0.044509   0.055605   0.120762   
0.085613   0.050392   0.059374   0.127005   
0.086821   0.057056   0.063196   0.133495   
0.087681   0.064588   0.067041   0.140285   
0.088110   0.073046   0.070790   0.147298   
0.088054   0.082478   0.074332   0.154497   
0.087461   0.092895   0.077515   0.161803   
0.086308   0.104271   0.080171   0.169128   
0.084596   0.116521   0.082109   0.176358   
0.082370   0.129497   0.083137   0.183365   
0.079720   0.142976   0.083073   0.190007   
0.076782   0.156666   0.081768   0.196134   
0.073737   0.170215   0.079127   0.201599   
0.070794   0.183233   0.075130   0.206272   
0.068170   0.195323   0.069844   0.210042   
0.066067   0.206120   0.063421   0.212836   
0.064646   0.215325   0.056092   0.214623   
0.064010   0.222731   0.048138   0.215410   
0.064196   0.228242   0.039867   0.215247   
0.065173   0.231865   0.031577   0.214217   
0.066856   0.233704   0.023535   0.212425   
0.069122   0.233934   0.015955   0.209992   
0.071825   0.232773   0.008993   0.207040   
0.074821   0.230462   0.002745   0.203691   
0.077967   0.227237   -0.002745   0.200053   
0.081148   0.223326   -0.007476   0.196226   
0.084256   0.218918   -0.011477   0.192287   
0.087236   0.214198   -0.014805   0.188315   
0.089994   0.209277   -0.017514   0.184343   
0.092557   0.204309   -0.019682   0.180446   
0.094664   0.198783   -0.021326   0.176133   
0.097833   0.189120   -0.023136   0.168645   
0.078687   0.027861   0.043512   0.102252   
0.083118   0.035432   0.049903   0.112649   
0.085339   0.040727   0.053805   0.118957   
0.087342   0.046477   0.057852   0.125578   
0.089003   0.053044   0.062020   0.132490   
0.090330   0.060570   0.066295   0.139793   
0.091196   0.069127   0.070552   0.147391   
0.091536   0.078800   0.074676   0.155257   
0.091266   0.089632   0.078496   0.163303   
0.090335   0.101623   0.081815   0.171432   
0.088722   0.114710   0.084403   0.179511   
0.086455   0.128747   0.086013   0.187388   
0.083624   0.143494   0.086405   0.194888   
0.080385   0.158609   0.085367   0.201820   
0.076956   0.173669   0.082757   0.208001   
0.073602   0.188182   0.078525   0.213255   
0.070604   0.201648   0.072740   0.217447   
0.068227   0.213597   0.065590   0.220480   
0.066680   0.223646   0.057369   0.222317   
0.066089   0.231549   0.048443   0.222980   
0.066490   0.237197   0.039204   0.222538   
0.067826   0.240633   0.030029   0.221108   
0.069970   0.242016   0.021240   0.218831   
0.072750   0.241590   0.013086   0.215862   
0.075973   0.239650   0.005731   0.212358   
0.079453   0.236500   -0.000736   0.208461   
0.083022   0.232434   -0.006292   0.204303   
0.086543   0.227712   -0.010965   0.199991   
0.089909   0.222560   -0.014815   0.195614   
0.093051   0.217162   -0.017923   0.191244   
0.095902   0.211658   -0.020371   0.186930   
0.098462   0.206163   -0.022245   0.182711   
0.100551   0.200168   -0.023567   0.178093   
0.103558   0.190008   -0.024851   0.170303   
0.078320   0.024541   0.040931   0.099198   
0.083353   0.031655   0.047440   0.109831   
0.086023   0.036685   0.051508   0.116401   
0.088478   0.042211   0.055777   0.123323   
0.090643   0.048620   0.060258   0.130637   
0.092482   0.056059   0.064935   0.138422   
0.093866   0.064645   0.069693   0.146605   
0.094694   0.074495   0.074412   0.155157   
0.094857   0.085696   0.078911   0.163993   
0.094265   0.098289   0.082965   0.173006   
0.092864   0.112242   0.086300   0.182049   
0.090658   0.127425   0.088609   0.190941   
0.087723   0.143582   0.089574   0.199465   
0.084229   0.160328   0.088909   0.207389   
0.080432   0.177139   0.086400   0.214463   
0.076664   0.193412   0.081955   0.220472   
0.073284   0.208493   0.075638   0.225220   
0.070634   0.221783   0.067681   0.228591   
0.068986   0.232801   0.058460   0.230538   
0.068492   0.241227   0.048446   0.231086   
0.069178   0.246965   0.038143   0.230342   
0.070950   0.250096   0.028023   0.228459   
0.073624   0.250864   0.018473   0.225626   
0.076965   0.249610   0.009772   0.222045   
0.080727   0.246718   0.002089   0.217906   
0.084681   0.242578   -0.004511   0.213387   
0.088632   0.237539   -0.010037   0.208636   
0.092434   0.231909   -0.014555   0.203778   
0.095974   0.225934   -0.018160   0.198904   
0.099197   0.219814   -0.020967   0.194093   
0.102045   0.213683   -0.023084   0.189385   
0.104528   0.207653   -0.024618   0.184820   
0.106489   0.201176   -0.025590   0.179870   
0.109138   0.190360   -0.026340   0.171621   
0.077466   0.021356   0.038055   0.095641   
0.083161   0.027837   0.044592   0.106495   
0.086261   0.032499   0.048756   0.113248   
0.089228   0.037731   0.053207   0.120465   
0.091943   0.043873   0.057959   0.128149   
0.094382   0.051117   0.063016   0.136416   
0.096381   0.059608   0.068273   0.145192   
0.097822   0.069518   0.073618   0.154468   
0.098551   0.080987   0.078864   0.164159   
0.098437   0.094116   0.083763   0.174161   
0.097376   0.108928   0.087995   0.184309   
0.095327   0.125328   0.091181   0.194394   
0.092344   0.143064   0.092907   0.204154   
0.088593   0.161692   0.092777   0.213286   
0.084387   0.180601   0.090474   0.221481   
0.080125   0.198996   0.085832   0.228421   
0.076285   0.216057   0.078906   0.233874   
0.073315   0.230973   0.069978   0.237657   
0.071559   0.243103   0.059540   0.239705   
0.071217   0.252084   0.048215   0.240083   
0.072290   0.257802   0.036661   0.238921   
0.074627   0.260434   0.025469   0.236444   
0.077956   0.260341   0.015103   0.232903   
0.081964   0.257997   0.005871   0.228556   
0.086333   0.253919   -0.002074   0.223650   
0.090788   0.248585   -0.008705   0.218394   
0.095114   0.242425   -0.014083   0.212964   
0.099155   0.235780   -0.018326   0.207491   
0.102813   0.228920   -0.021578   0.202079   
0.106039   0.222042   -0.023988   0.196795   
0.108809   0.215284   -0.025697   0.191684   
0.111133   0.208730   -0.026828   0.186765   
0.112902   0.201817   -0.027406   0.181507   
0.115096   0.190486   -0.027531   0.172863   
0.076048   0.018146   0.034859   0.091532   
0.082356   0.023944   0.041307   0.102483   
0.085924   0.028187   0.045506   0.109398   
0.089421   0.033031   0.050070   0.116853   
0.092750   0.038809   0.055037   0.124885   
0.095866   0.045734   0.060427   0.133611   
0.098600   0.053998   0.066161   0.142988   
0.100797   0.063825   0.072144   0.153017   
0.102266   0.075429   0.078194   0.163637   
0.102817   0.088991   0.084051   0.174742   
0.102278   0.104622   0.089352   0.186165   
0.100543   0.122290   0.093634   0.197663   
0.097607   0.141778   0.096364   0.208920   
0.093638   0.162612   0.096991   0.219558   
0.088962   0.184022   0.095044   0.229145   
0.084116   0.205049   0.090252   0.237296   
0.079700   0.224529   0.082621   0.243617   
0.076330   0.241420   0.072514   0.247905   
0.074484   0.254885   0.060576   0.250075   
0.074375   0.264403   0.047651   0.250175   
0.075988   0.269949   0.034607   0.248449   
0.079058   0.271804   0.022200   0.245189   
0.083207   0.270521   0.010981   0.240744   
0.088001   0.266775   0.001267   0.235460   
0.093041   0.261227   -0.006827   0.229633   
0.098008   0.254491   -0.013344   0.223525   
0.102666   0.247051   -0.018420   0.217321   
0.106873   0.239296   -0.022244   0.211174   
0.110547   0.231496   -0.025015   0.205176   
0.113672   0.223847   -0.026926   0.199396   
0.116250   0.216463   -0.028147   0.193864   
0.118310   0.209412   -0.028820   0.188591   
0.119776   0.202093   -0.028962   0.183026   
0.121352   0.190277   -0.028438   0.173975   
0.073961   0.015075   0.031395   0.086830   
0.080851   0.020101   0.037619   0.097782   
0.084867   0.023849   0.041759   0.104779   
0.088908   0.028223   0.046352   0.112417   
0.092884   0.033524   0.051443   0.120734   
0.096752   0.039991   0.057087   0.129876   
0.100328   0.047858   0.063235   0.139823   
0.103439   0.057414   0.069827   0.150615   
0.105848   0.068954   0.076706   0.162207   
0.107300   0.082776   0.083618   0.174526   
0.107532   0.099100   0.090166   0.187396   
0.106334   0.118032   0.095809   0.200563   
0.103615   0.139418   0.099861   0.213645   
0.099470   0.162771   0.101568   0.226155   
0.094307   0.187227   0.100231   0.237549   
0.088727   0.211458   0.095365   0.247201   
0.083607   0.234038   0.086926   0.254686   
0.079762   0.253401   0.075331   0.259589   
0.077807   0.268381   0.061502   0.261817   
0.078079   0.278451   0.046594   0.261540   
0.080432   0.283547   0.031782   0.259021   
0.084480   0.284226   0.018028   0.254725   
0.089645   0.281328   0.005960   0.249136   
0.095346   0.275764   -0.004114   0.242682   
0.101102   0.268437   -0.012177   0.235766   
0.106539   0.260057   -0.018371   0.228662   
0.111442   0.251203   -0.022949   0.221602   
0.115684   0.242260   -0.026179   0.214716   
0.119235   0.233505   -0.028331   0.208105   
0.122108   0.225096   -0.029637   0.201811   
0.124357   0.217128   -0.030298   0.195862   
0.126024   0.209626   -0.030463   0.190240   
0.127078   0.201970   -0.030142   0.184392   
0.127883   0.189790   -0.028950   0.174979   
0.071110   0.012150   0.027688   0.081487   
0.078490   0.016368   0.033542   0.092298   
0.082923   0.019566   0.037527   0.099305   
0.087488   0.023395   0.042034   0.107030   
0.092120   0.028109   0.047134   0.115550   
0.096783   0.033972   0.052908   0.125024   
0.101298   0.041256   0.059361   0.135482   
0.105478   0.050308   0.066477   0.146996   
0.109055   0.061530   0.074158   0.159583   
0.111694   0.075336   0.082177   0.173192   
0.113037   0.092148   0.090145   0.187699   
0.112716   0.112226   0.097441   0.202816   
0.110491   0.135623   0.103220   0.218129   
0.106370   0.161911   0.106442   0.233017   
0.100660   0.190050   0.106059   0.246712   
0.094252   0.218467   0.101301   0.258468   
0.088170   0.244898   0.091910   0.267392   
0.083682   0.267376   0.078492   0.273132   
0.081728   0.284253   0.062246   0.275447   
0.082543   0.294646   0.044850   0.274487   
0.085966   0.298870   0.027927   0.270851   
0.091283   0.297789   0.012699   0.265163   
0.097677   0.292648   -0.000123   0.258067   
0.104398   0.284801   -0.010347   0.250198   
0.110836   0.275311   -0.018093   0.241968   
0.116647   0.265084   -0.023693   0.233750   
0.121614   0.254688   -0.027524   0.225732   
0.125701   0.244536   -0.029970   0.218071   
0.128920   0.234840   -0.031359   0.210819   
0.131355   0.225726   -0.031966   0.204014   
0.133099   0.217237   -0.032007   0.197653   
0.134227   0.209359   -0.031637   0.191701   
0.134736   0.201439   -0.030843   0.185592   
0.134595   0.189004   -0.029009   0.175852   
0.067421   0.009471   0.023821   0.075492   
0.075138   0.012841   0.029148   0.085991   
0.079925   0.015467   0.032854   0.092893   
0.084945   0.018674   0.037152   0.100593   
0.090199   0.022712   0.042106   0.109188   
0.095654   0.027826   0.047848   0.118872   
0.101162   0.034326   0.054429   0.129719   
0.106545   0.042617   0.061914   0.141871   
0.111507   0.053179   0.070275   0.155395   
0.115680   0.066614   0.079381   0.170345   
0.118550   0.083515   0.088878   0.186617   
0.119600   0.104502   0.098143   0.204017   
0.118305   0.129838   0.106152   0.222032   
0.114418   0.159349   0.111549   0.239961   
0.108297   0.191959   0.112752   0.256763   
0.100733   0.225486   0.108390   0.271150   
0.093538   0.257244   0.097967   0.282231   
0.088294   0.283778   0.082027   0.288886   
0.086257   0.302776   0.062577   0.291109   
0.088059   0.313422   0.042018   0.289283   
0.092973   0.316078   0.022611   0.284071   
0.099977   0.312356   0.005916   0.276475   
0.107866   0.304277   -0.007435   0.267515   
0.115611   0.293504   -0.017414   0.257853   
0.122636   0.281537   -0.024457   0.248134   
0.128560   0.269246   -0.029097   0.238635   
0.133333   0.257285   -0.031911   0.229616   
0.136963   0.245939   -0.033371   0.221136   
0.139593   0.235390   -0.033873   0.213256   
0.141347   0.225664   -0.033708   0.205949   
0.142391   0.216758   -0.033100   0.199203   
0.142813   0.208599   -0.032192   0.192944   
0.142647   0.200514   -0.030946   0.186613   
0.141397   0.187965   -0.028530   0.176602   
0.062773   0.007059   0.019850   0.068769   
0.070680   0.009637   0.024513   0.078804   
0.075681   0.011646   0.027839   0.085480   
0.081064   0.014225   0.031776   0.093004   
0.086828   0.017499   0.036418   0.101513   
0.093009   0.021753   0.041912   0.111223   
0.099490   0.027282   0.048387   0.122279   
0.106130   0.034524   0.055979   0.134879   
0.112679   0.044063   0.064790   0.149220   
0.118701   0.056603   0.074806   0.165417   
0.123656   0.073089   0.085839   0.183575   
0.126712   0.094402   0.097299   0.203487   
0.127114   0.121496   0.108118   0.224820   
0.124180   0.154527   0.116474   0.246594   
0.117760   0.192728   0.120095   0.267553   
0.109163   0.233446   0.116726   0.286015   
0.100114   0.272002   0.105042   0.299797   
0.093733   0.304062   0.086077   0.308167   
0.092100   0.325649   0.062312   0.310138   
0.095199   0.335569   0.037659   0.306559   
0.102303   0.335373   0.015407   0.298904   
0.111462   0.327848   -0.002668   0.288768   
0.120915   0.315676   -0.016023   0.277258   
0.129626   0.301468   -0.025199   0.265543   
0.136850   0.286625   -0.030973   0.254037   
0.142527   0.272250   -0.034255   0.243211   
0.146645   0.258736   -0.035755   0.233113   
0.149456   0.246345   -0.036066   0.223847   
0.151148   0.235073   -0.035592   0.215348   
0.151959   0.224890   -0.034633   0.207585   
0.152080   0.215697   -0.033390   0.200486   
0.151633   0.207375   -0.031984   0.193962   
0.150656   0.199232   -0.030340   0.187447   
0.148148   0.186708   -0.027451   0.177223   
0.057225   0.005028   0.015954   0.061448   
0.064965   0.006795   0.019801   0.070721   
0.070080   0.008281   0.022606   0.077024   
0.075607   0.010176   0.026061   0.084192   
0.081731   0.012692   0.030193   0.092404   
0.088454   0.015996   0.035210   0.101903   
0.095772   0.020411   0.041271   0.112889   
0.103619   0.026365   0.048623   0.125670   
0.111790   0.034453   0.057478   0.140512   
0.119981   0.045569   0.068050   0.157788   
0.127486   0.060782   0.080343   0.177660   
0.133495   0.081673   0.094092   0.200371   
0.136538   0.109602   0.108234   0.225464   
0.135378   0.146008   0.120825   0.252339   
0.129343   0.190189   0.128465   0.278946   
0.118906   0.239605   0.127229   0.302688   
0.108069   0.288405   0.114539   0.321008   
0.100301   0.327802   0.090582   0.330531   
0.098840   0.352667   0.060705   0.332177   
0.104721   0.361264   0.030777   0.326324   
0.114967   0.356682   0.005410   0.315469   
0.126732   0.343385   -0.013298   0.301640   
0.137909   0.326285   -0.025820   0.287199   
0.146972   0.307864   -0.033261   0.272860   
0.153889   0.290154   -0.037155   0.259540   
0.158575   0.273689   -0.038621   0.247237   
0.161517   0.258885   -0.038594   0.236143   
0.162985   0.245641   -0.037648   0.226097   
0.163384   0.233888   -0.036200   0.217062   
0.162948   0.223426   -0.034491   0.208886   
0.161940   0.214110   -0.032689   0.201496   
0.160468   0.205753   -0.030870   0.194747   
0.158571   0.197663   -0.028923   0.188099   
0.154693   0.185304   -0.025718   0.177726   
0.050494   0.003305   0.012108   0.053231   
0.058032   0.004499   0.015126   0.061752   
0.062926   0.005386   0.017381   0.067499   
0.068449   0.006737   0.020202   0.074120   
0.074614   0.008469   0.023672   0.081781   
0.081617   0.010846   0.027954   0.090764   
0.089477   0.014076   0.033283   0.101331   
0.098250   0.018557   0.039942   0.113843   
0.107934   0.024897   0.048308   0.128777   
0.118244   0.033916   0.058765   0.146566   
0.128867   0.047068   0.071741   0.167919   
0.138552   0.066031   0.087319   0.193086   
0.146088   0.093765   0.105087   0.222634   
0.148828   0.132459   0.122860   0.255471   
0.144726   0.185120   0.136478   0.290348   
0.133955   0.247603   0.139319   0.322975   
0.118993   0.310974   0.125401   0.347904   
0.109048   0.362326   0.095786   0.362195   
0.109448   0.388989   0.056956   0.361177   
0.118697   0.392652   0.020180   0.350541   
0.133188   0.379235   -0.007760   0.333511   
0.147956   0.358378   -0.026048   0.315178   
0.159715   0.334640   -0.036138   0.296586   
0.168419   0.312095   -0.040855   0.279666   
0.173718   0.291447   -0.042116   0.264218   
0.176643   0.273395   -0.041495   0.250639   
0.177578   0.257588   -0.039819   0.238538   
0.177223   0.243879   -0.037680   0.227867   
0.175906   0.231893   -0.035361   0.218351   
0.173978   0.221387   -0.033048   0.209859   
0.171649   0.212108   -0.030830   0.202229   
0.169044   0.203846   -0.028740   0.195315   
0.166147   0.195909   -0.026624   0.188579   
0.160845   0.183829   -0.023305   0.178117   
0.043209   0.002131   0.008822   0.044866   
0.049658   0.002599   0.010788   0.051892   
0.054334   0.003203   0.012357   0.056978   
0.059401   0.003944   0.014520   0.062787   
0.065346   0.005066   0.017165   0.069631   
0.072170   0.006554   0.020532   0.077737   
0.080106   0.008661   0.024799   0.087425   
0.089310   0.011657   0.030328   0.099149   
0.099918   0.016033   0.037514   0.113404   
0.112104   0.022594   0.047013   0.131056   
0.125526   0.032587   0.059474   0.152774   
0.139928   0.048340   0.075893   0.180088   
0.153030   0.072888   0.096497   0.213335   
0.162309   0.111943   0.120835   0.253987   
0.162339   0.167880   0.144014   0.299173   
0.149881   0.245442   0.155849   0.344653   
0.131885   0.331036   0.143278   0.380664   
0.118509   0.397930   0.101407   0.395075   
0.121562   0.431081   0.048883   0.394174   
0.139270   0.425755   0.003839   0.376049   
0.159973   0.401863   -0.025323   0.353160   
0.176346   0.369823   -0.039926   0.327768   
0.187868   0.339825   -0.045772   0.305317   
0.193692   0.312939   -0.046421   0.285128   
0.196221   0.290377   -0.044745   0.268048   
0.195983   0.271175   -0.041925   0.253126   
0.194281   0.255019   -0.038819   0.240323   
0.191504   0.241189   -0.035707   0.229090   
0.188199   0.229304   -0.032793   0.219250   
0.184560   0.218951   -0.030115   0.210507   