<VTKFile type="UnstructuredGrid"  version="0.1"   > 
<UnstructuredGrid> 
<Piece  NumberOfPoints="  1200" NumberOfCells=" 722"> 
<Points> 
<DataArray  type="Float64"  NumberOfComponents="3"  format="ascii" > 
0.000000 0.000000 0.000000 
0.750000 0.000000 0.000000 
1.250000 0.000000 0.000000 
1.750000 0.000000 0.000000 
2.250000 0.000000 0.000000 
2.750000 0.000000 0.000000 
3.250000 0.000000 0.000000 
3.750000 0.000000 0.000000 
4.250000 0.000000 0.000000 
4.750000 0.000000 0.000000 
5.250000 0.000000 0.000000 
5.750000 0.000000 0.000000 
6.250000 0.000000 0.000000 
6.750000 0.000000 0.000000 
7.250000 0.000000 0.000000 
7.750000 0.000000 0.000000 
8.250000 0.000000 0.000000 
8.750000 0.000000 0.000000 
9.250000 0.000000 0.000000 
10.000000 0.000000 0.000000 
0.000000 1.000000 0.000000 
0.750000 1.000000 0.000000 
1.250000 1.000000 0.000000 
1.750000 1.000000 0.000000 
2.250000 1.000000 0.000000 
2.750000 1.000000 0.000000 
3.250000 1.000000 0.000000 
3.750000 1.000000 0.000000 
4.250000 1.000000 0.000000 
4.750000 1.000000 0.000000 
5.250000 1.000000 0.000000 
5.750000 1.000000 0.000000 
6.250000 1.000000 0.000000 
6.750000 1.000000 0.000000 
7.250000 1.000000 0.000000 
7.750000 1.000000 0.000000 
8.250000 1.000000 0.000000 
8.750000 1.000000 0.000000 
9.250000 1.000000 0.000000 
10.000000 1.000000 0.000000 
0.000000 2.000000 0.000000 
0.750000 2.000000 0.000000 
1.250000 2.000000 0.000000 
1.750000 2.000000 0.000000 
2.250000 2.000000 0.000000 
2.750000 2.000000 0.000000 
3.250000 2.000000 0.000000 
3.750000 2.000000 0.000000 
4.250000 2.000000 0.000000 
4.750000 2.000000 0.000000 
5.250000 2.000000 0.000000 
5.750000 2.000000 0.000000 
6.250000 2.000000 0.000000 
6.750000 2.000000 0.000000 
7.250000 2.000000 0.000000 
7.750000 2.000000 0.000000 
8.250000 2.000000 0.000000 
8.750000 2.000000 0.000000 
9.250000 2.000000 0.000000 
10.000000 2.000000 0.000000 
0.000000 0.000000 0.750000 
0.750000 0.000000 0.750000 
1.250000 0.000000 0.750000 
1.750000 0.000000 0.750000 
2.250000 0.000000 0.750000 
2.750000 0.000000 0.750000 
3.250000 0.000000 0.750000 
3.750000 0.000000 0.750000 
4.250000 0.000000 0.750000 
4.750000 0.000000 0.750000 
5.250000 0.000000 0.750000 
5.750000 0.000000 0.750000 
6.250000 0.000000 0.750000 
6.750000 0.000000 0.750000 
7.250000 0.000000 0.750000 
7.750000 0.000000 0.750000 
8.250000 0.000000 0.750000 
8.750000 0.000000 0.750000 
9.250000 0.000000 0.750000 
10.000000 0.000000 0.750000 
0.000000 1.000000 0.750000 
0.750000 1.000000 0.750000 
1.250000 1.000000 0.750000 
1.750000 1.000000 0.750000 
2.250000 1.000000 0.750000 
2.750000 1.000000 0.750000 
3.250000 1.000000 0.750000 
3.750000 1.000000 0.750000 
4.250000 1.000000 0.750000 
4.750000 1.000000 0.750000 
5.250000 1.000000 0.750000 
5.750000 1.000000 0.750000 
6.250000 1.000000 0.750000 
6.750000 1.000000 0.750000 
7.250000 1.000000 0.750000 
7.750000 1.000000 0.750000 
8.250000 1.000000 0.750000 
8.750000 1.000000 0.750000 
9.250000 1.000000 0.750000 
10.000000 1.000000 0.750000 
0.000000 2.000000 0.750000 
0.750000 2.000000 0.750000 
1.250000 2.000000 0.750000 
1.750000 2.000000 0.750000 
2.250000 2.000000 0.750000 
2.750000 2.000000 0.750000 
3.250000 2.000000 0.750000 
3.750000 2.000000 0.750000 
4.250000 2.000000 0.750000 
4.750000 2.000000 0.750000 
5.250000 2.000000 0.750000 
5.750000 2.000000 0.750000 
6.250000 2.000000 0.750000 
6.750000 2.000000 0.750000 
7.250000 2.000000 0.750000 
7.750000 2.000000 0.750000 
8.250000 2.000000 0.750000 
8.750000 2.000000 0.750000 
9.250000 2.000000 0.750000 
10.000000 2.000000 0.750000 
0.000000 0.000000 1.250000 
0.750000 0.000000 1.250000 
1.250000 0.000000 1.250000 
1.750000 0.000000 1.250000 
2.250000 0.000000 1.250000 
2.750000 0.000000 1.250000 
3.250000 0.000000 1.250000 
3.750000 0.000000 1.250000 
4.250000 0.000000 1.250000 
4.750000 0.000000 1.250000 
5.250000 0.000000 1.250000 
5.750000 0.000000 1.250000 
6.250000 0.000000 1.250000 
6.750000 0.000000 1.250000 
7.250000 0.000000 1.250000 
7.750000 0.000000 1.250000 
8.250000 0.000000 1.250000 
8.750000 0.000000 1.250000 
9.250000 0.000000 1.250000 
10.000000 0.000000 1.250000 
0.000000 1.000000 1.250000 
0.750000 1.000000 1.250000 
1.250000 1.000000 1.250000 
1.750000 1.000000 1.250000 
2.250000 1.000000 1.250000 
2.750000 1.000000 1.250000 
3.250000 1.000000 1.250000 
3.750000 1.000000 1.250000 
4.250000 1.000000 1.250000 
4.750000 1.000000 1.250000 
5.250000 1.000000 1.250000 
5.750000 1.000000 1.250000 
6.250000 1.000000 1.250000 
6.750000 1.000000 1.250000 
7.250000 1.000000 1.250000 
7.750000 1.000000 1.250000 
8.250000 1.000000 1.250000 
8.750000 1.000000 1.250000 
9.250000 1.000000 1.250000 
10.000000 1.000000 1.250000 
0.000000 2.000000 1.250000 
0.750000 2.000000 1.250000 
1.250000 2.000000 1.250000 
1.750000 2.000000 1.250000 
2.250000 2.000000 1.250000 
2.750000 2.000000 1.250000 
3.250000 2.000000 1.250000 
3.750000 2.000000 1.250000 
4.250000 2.000000 1.250000 
4.750000 2.000000 1.250000 
5.250000 2.000000 1.250000 
5.750000 2.000000 1.250000 
6.250000 2.000000 1.250000 
6.750000 2.000000 1.250000 
7.250000 2.000000 1.250000 
7.750000 2.000000 1.250000 
8.250000 2.000000 1.250000 
8.750000 2.000000 1.250000 
9.250000 2.000000 1.250000 
10.000000 2.000000 1.250000 
0.000000 0.000000 1.750000 
0.750000 0.000000 1.750000 
1.250000 0.000000 1.750000 
1.750000 0.000000 1.750000 
2.250000 0.000000 1.750000 
2.750000 0.000000 1.750000 
3.250000 0.000000 1.750000 
3.750000 0.000000 1.750000 
4.250000 0.000000 1.750000 
4.750000 0.000000 1.750000 
5.250000 0.000000 1.750000 
5.750000 0.000000 1.750000 
6.250000 0.000000 1.750000 
6.750000 0.000000 1.750000 
7.250000 0.000000 1.750000 
7.750000 0.000000 1.750000 
8.250000 0.000000 1.750000 
8.750000 0.000000 1.750000 
9.250000 0.000000 1.750000 
10.000000 0.000000 1.750000 
0.000000 1.000000 1.750000 
0.750000 1.000000 1.750000 
1.250000 1.000000 1.750000 
1.750000 1.000000 1.750000 
2.250000 1.000000 1.750000 
2.750000 1.000000 1.750000 
3.250000 1.000000 1.750000 
3.750000 1.000000 1.750000 
4.250000 1.000000 1.750000 
4.750000 1.000000 1.750000 
5.250000 1.000000 1.750000 
5.750000 1.000000 1.750000 
6.250000 1.000000 1.750000 
6.750000 1.000000 1.750000 
7.250000 1.000000 1.750000 
7.750000 1.000000 1.750000 
8.250000 1.000000 1.750000 
8.750000 1.000000 1.750000 
9.250000 1.000000 1.750000 
10.000000 1.000000 1.750000 
0.000000 2.000000 1.750000 
0.750000 2.000000 1.750000 
1.250000 2.000000 1.750000 
1.750000 2.000000 1.750000 
2.250000 2.000000 1.750000 
2.750000 2.000000 1.750000 
3.250000 2.000000 1.750000 
3.750000 2.000000 1.750000 
4.250000 2.000000 1.750000 
4.750000 2.000000 1.750000 
5.250000 2.000000 1.750000 
5.750000 2.000000 1.750000 
6.250000 2.000000 1.750000 
6.750000 2.000000 1.750000 
7.250000 2.000000 1.750000 
7.750000 2.000000 1.750000 
8.250000 2.000000 1.750000 
8.750000 2.000000 1.750000 
9.250000 2.000000 1.750000 
10.000000 2.000000 1.750000 
0.000000 0.000000 2.250000 
0.750000 0.000000 2.250000 
1.250000 0.000000 2.250000 
1.750000 0.000000 2.250000 
2.250000 0.000000 2.250000 
2.750000 0.000000 2.250000 
3.250000 0.000000 2.250000 
3.750000 0.000000 2.250000 
4.250000 0.000000 2.250000 
4.750000 0.000000 2.250000 
5.250000 0.000000 2.250000 
5.750000 0.000000 2.250000 
6.250000 0.000000 2.250000 
6.750000 0.000000 2.250000 
7.250000 0.000000 2.250000 
7.750000 0.000000 2.250000 
8.250000 0.000000 2.250000 
8.750000 0.000000 2.250000 
9.250000 0.000000 2.250000 
10.000000 0.000000 2.250000 
0.000000 1.000000 2.250000 
0.750000 1.000000 2.250000 
1.250000 1.000000 2.250000 
1.750000 1.000000 2.250000 
2.250000 1.000000 2.250000 
2.750000 1.000000 2.250000 
3.250000 1.000000 2.250000 
3.750000 1.000000 2.250000 
4.250000 1.000000 2.250000 
4.750000 1.000000 2.250000 
5.250000 1.000000 2.250000 
5.750000 1.000000 2.250000 
6.250000 1.000000 2.250000 
6.750000 1.000000 2.250000 
7.250000 1.000000 2.250000 
7.750000 1.000000 2.250000 
8.250000 1.000000 2.250000 
8.750000 1.000000 2.250000 
9.250000 1.000000 2.250000 
10.000000 1.000000 2.250000 
0.000000 2.000000 2.250000 
0.750000 2.000000 2.250000 
1.250000 2.000000 2.250000 
1.750000 2.000000 2.250000 
2.250000 2.000000 2.250000 
2.750000 2.000000 2.250000 
3.250000 2.000000 2.250000 
3.750000 2.000000 2.250000 
4.250000 2.000000 2.250000 
4.750000 2.000000 2.250000 
5.250000 2.000000 2.250000 
5.750000 2.000000 2.250000 
6.250000 2.000000 2.250000 
6.750000 2.000000 2.250000 
7.250000 2.000000 2.250000 
7.750000 2.000000 2.250000 
8.250000 2.000000 2.250000 
8.750000 2.000000 2.250000 
9.250000 2.000000 2.250000 
10.000000 2.000000 2.250000 
0.000000 0.000000 2.750000 
0.750000 0.000000 2.750000 
1.250000 0.000000 2.750000 
1.750000 0.000000 2.750000 
2.250000 0.000000 2.750000 
2.750000 0.000000 2.750000 
3.250000 0.000000 2.750000 
3.750000 0.000000 2.750000 
4.250000 0.000000 2.750000 
4.750000 0.000000 2.750000 
5.250000 0.000000 2.750000 
5.750000 0.000000 2.750000 
6.250000 0.000000 2.750000 
6.750000 0.000000 2.750000 
7.250000 0.000000 2.750000 
7.750000 0.000000 2.750000 
8.250000 0.000000 2.750000 
8.750000 0.000000 2.750000 
9.250000 0.000000 2.750000 
10.000000 0.000000 2.750000 
0.000000 1.000000 2.750000 
0.750000 1.000000 2.750000 
1.250000 1.000000 2.750000 
1.750000 1.000000 2.750000 
2.250000 1.000000 2.750000 
2.750000 1.000000 2.750000 
3.250000 1.000000 2.750000 
3.750000 1.000000 2.750000 
4.250000 1.000000 2.750000 
4.750000 1.000000 2.750000 
5.250000 1.000000 2.750000 
5.750000 1.000000 2.750000 
6.250000 1.000000 2.750000 
6.750000 1.000000 2.750000 
7.250000 1.000000 2.750000 
7.750000 1.000000 2.750000 
8.250000 1.000000 2.750000 
8.750000 1.000000 2.750000 
9.250000 1.000000 2.750000 
10.000000 1.000000 2.750000 
0.000000 2.000000 2.750000 
0.750000 2.000000 2.750000 
1.250000 2.000000 2.750000 
1.750000 2.000000 2.750000 
2.250000 2.000000 2.750000 
2.750000 2.000000 2.750000 
3.250000 2.000000 2.750000 
3.750000 2.000000 2.750000 
4.250000 2.000000 2.750000 
[...]
<PointData  Vectors="sigma"> 
<DataArray  type="Float64"  Name="sigma" NumberOfComponents="6" format="ascii"> 
39248.748612   31495.862506   65661.589483   17.182161   10569.560502   34660.851883   
21461.364863   14084.197053   25438.017973   -2.195723   10423.574929   18867.536352   
21396.093830   14271.249224   26125.694419   2.449743   10764.796244   19042.086194   
20397.595433   13918.154411   25947.900119   -0.227574   10966.709845   18865.773563   
19919.528279   14278.103656   27624.659201   0.424143   11321.815282   19128.878061   
18874.061249   14380.706439   29011.792294   0.324223   11535.922333   19036.401280   
17379.689116   14274.368488   30151.966182   0.646725   11606.941845   18550.420117   
15414.792987   13884.607471   30818.789306   0.840696   11499.257682   17563.791313   
13224.077938   13319.765814   31128.348856   0.897281   11277.394627   16072.632101   
11131.167639   12742.035349   31297.168460   0.779697   11038.690102   14124.880564   
9483.983170   12329.516262   31570.446577   0.471539   10893.460221   11793.906643   
8547.796959   12218.959251   32138.333950   0.090840   10922.008940   9179.460196   
8427.851059   12460.200170   33061.521690   -0.363813   11158.309749   6409.787461   
9061.479112   13007.238075   34249.504971   -0.605831   11582.723800   3623.974751   
10238.149247   13739.184306   35510.043052   -1.047640   12132.774600   998.651777   
11735.166821   14518.146723   36606.830375   -0.800459   12736.957871   -1346.456317   
13228.185089   15182.258500   37324.339202   -2.115095   13308.569616   -3284.801150   
14632.185332   15609.127844   37342.330313   0.178991   13438.903941   -4950.084475   
15389.521415   15625.583416   36637.917303   -6.352547   12909.797892   -6515.422257   
15414.582235   14500.876390   32912.023665   22.165836   -22.627774   -6622.962197   
18508.452833   11126.454851   18531.789329   0.300826   12.771361   18176.382748   
36712.187113   28967.201059   59769.279494   3.043309   12.826185   34324.362154   
18508.452833   11126.454851   18531.789329   0.300826   12.771361   18176.382748   
17909.083563   10786.391388   17996.511902   0.970261   13.795084   18307.974226   
16483.600278   10003.427971   16812.807142   0.614974   14.574343   18223.250837   
15645.452593   10004.687646   17654.014853   0.632877   15.429900   18562.302112   
14313.234636   9820.022450   18370.338944   0.432302   16.023558   18618.593379   
12601.623049   9496.700288   19004.471581   0.297179   16.443623   18281.103391   
10487.599419   8957.617513   19322.683016   0.146809   16.613704   17430.820296   
8198.594557   8294.393780   19402.592124   0.068070   16.640081   16018.178600   
6032.812024   7643.598967   19400.736136   0.060425   16.606586   14075.875996   
4308.828823   7154.194134   19494.527165   0.122562   16.649527   11683.266546   
3270.945528   6941.835621   19824.773279   0.232557   16.834426   8966.017851   
3016.601464   7048.872147   20435.011208   0.320214   17.239588   6093.143026   
3498.112411   7443.565412   21267.296129   0.416311   17.743465   3238.757594   
4510.713019   8012.352058   22148.038452   0.341807   18.466711   630.253347   
5926.011980   8708.410772   23050.198712   0.336089   18.821732   -1628.260824   
7382.384093   9339.652339   23694.786328   -0.317342   19.438567   -3087.125245   
9280.211171   10255.817600   24849.936994   -0.782030   17.978075   -4171.967042   
10656.710397   10905.424619   25636.865665   -3.611064   16.753151   -3088.472691   
21461.364863   14084.197053   25438.017973   2.195723   -10423.574929   18867.536352   
39248.748612   31495.862506   65661.589483   -17.182161   -10569.560502   34660.851883   
21461.364863   14084.197053   25438.017973   2.195723   -10423.574929   18867.536352   
21396.093830   14271.249224   26125.694419   -2.449743   -10764.796244   19042.086194   
20397.595433   13918.154411   25947.900119   0.227574   -10966.709845   18865.773563   
19919.528279   14278.103656   27624.659201   -0.424143   -11321.815282   19128.878061   
18874.061249   14380.706439   29011.792294   -0.324223   -11535.922333   19036.401280   
17379.689116   14274.368488   30151.966182   -0.646725   -11606.941845   18550.420117   
15414.792987   13884.607471   30818.789306   -0.840696   -11499.257682   17563.791313   
13224.077938   13319.765814   31128.348856   -0.897281   -11277.394627   16072.632101   
11131.167639   12742.035349   31297.168460   -0.779697   -11038.690102   14124.880564   
9483.983170   12329.516262   31570.446577   -0.471539   -10893.460221   11793.906643   
8547.796959   12218.959251   32138.333950   -0.090840   -10922.008940   9179.460196   
8427.851059   12460.200170   33061.521690   0.363813   -11158.309749   6409.787461   
9061.479112   13007.238075   34249.504971   0.605831   -11582.723800   3623.974751   
10238.149247   13739.184306   35510.043052   1.047640   -12132.774600   998.651777   
11735.166821   14518.146723   36606.830375   0.800459   -12736.957871   -1346.456317   
13228.185089   15182.258500   37324.339202   2.115095   -13308.569616   -3284.801150   
14632.185332   15609.127844   37342.330313   -0.178991   -13438.903941   -4950.084475   
15389.521415   15625.583416   36637.917303   6.352547   -12909.797892   -6515.422257   
-7319.060682   -6534.778345   3659.527846   594.385767   -4717.575634   -1011.814340   
9984.934670   2627.069916   20296.269624   906.955824   -1581.147745   20892.692970   
10076.857517   256.055141   14732.468008   237.139518   -420.925987   18174.153744   
11595.823208   635.267487   16158.313834   322.206236   392.467817   19860.415254   
11632.166646   506.447064   17217.736101   224.503260   804.390502   20330.932434   
11266.663928   636.120159   19178.669095   130.047129   1206.096137   20929.516595   
10391.271420   695.620917   20992.895428   0.693787   1540.236627   20915.792467   
9275.415627   769.569623   22652.199328   -114.400884   1856.424636   20202.499521   
8057.750765   823.636795   24026.230699   -163.437878   2136.231234   18666.247087   
6949.965535   870.393401   25164.638471   -140.545996   2380.103429   16347.405422   
6092.407248   912.939207   26178.850719   -39.900327   2582.563405   13375.051765   
5597.698849   945.547095   27120.209172   97.240831   2746.304675   9920.351572   
5542.143832   965.329914   27961.561908   235.417373   2856.124175   6244.411998   
5939.849071   971.976539   28634.390610   346.784908   2909.034687   2620.116691   
6720.727711   944.888210   28988.454395   406.575989   2898.937037   -672.742015   
7794.559522   888.711207   28959.269071   452.347197   2841.124676   -3464.990413   
8579.872421   643.409507   28308.702604   484.262301   2657.213275   -5521.431074   
9979.145987   1031.348703   27890.909625   -57.650708   2419.676354   -7354.550170   
8378.780465   1027.189193   26399.105957   -303.023406   1079.274998   -7902.699762   
21258.134480   16913.062608   35057.599570   -13402.289391   4.658838   -8610.121090   
13782.453743   6464.445775   29290.003415   -569.380082   -672.382377   19099.854755   
-4649.007743   -3220.395052   12037.419215   -237.250708   -403.121067   -1390.541970   
13782.453743   6464.445775   29290.003415   -569.380082   -672.382377   19099.854755   
14108.699100   4094.478156   23495.369808   -530.989636   -1077.247560   16799.688933   
15295.794895   4249.278981   24505.047127   -461.144946   -1412.428476   18678.780591   
15306.647222   4022.276551   25262.687147   -399.992125   -1700.903879   19334.167595   
14789.278239   3994.089929   26849.287349   -319.168217   -1946.199001   20037.715832   
13744.873395   3871.704358   28226.238257   -233.627449   -2154.154730   20139.279498   
12344.431570   3698.352608   29345.793335   -154.189576   -2326.741706   19541.556680   
10779.432152   3475.300721   30143.429064   -101.626971   -2467.168658   18116.416469   
9328.224648   3259.191641   30749.040159   -86.757387   -2583.490524   15884.545350   
8214.818573   3107.311531   31371.013808   -107.382419   -2684.201424   12977.409922   
7622.340558   3057.648016   32135.903867   -147.237472   -2775.485651   9582.600551   
7627.267358   3112.387736   33033.297787   -184.585849   -2859.182127   5981.287608   
8224.613287   3260.246632   33977.193371   -200.945892   -2927.891458   2471.084888   
9375.874711   3499.470082   34848.580303   -176.681080   -2972.733456   -703.601422   
10820.786595   3714.927549   35353.763137   -101.537115   -2962.556693   -3205.762275   
13015.948525   4237.384570   35852.543378   158.990828   -2886.568362   -5073.774132   
14213.281833   4522.357901   35293.471104   555.297750   -2573.675392   -5652.354044   
19650.758214   7561.325945   36907.584051   1925.539662   -2130.107934   -6309.637418   
9984.934670   2627.069916   20296.269624   -906.955824   1581.147745   20892.692970   
-7319.060682   -6534.778345   3659.527846   -594.385767   4717.575634   -1011.814340   
9984.934670   2627.069916   20296.269624   -906.955824   1581.147745   20892.692970   
10076.857517   256.055141   14732.468008   -237.139518   420.925987   18174.153744   
11595.823208   635.267487   16158.313834   -322.206236   -392.467817   19860.415254   
11632.166646   506.447064   17217.736101   -224.503260   -804.390502   20330.932434   
11266.663928   636.120159   19178.669095   -130.047129   -1206.096137   20929.516595   
10391.271420   695.620917   20992.895428   -0.693787   -1540.236627   20915.792467   
9275.415627   769.569623   22652.199328   114.400884   -1856.424636   20202.499521   
8057.750765   823.636795   24026.230699   163.437878   -2136.231234   18666.247087   
6949.965535   870.393401   25164.638471   140.545996   -2380.103429   16347.405422   
6092.407248   912.939207   26178.850719   39.900327   -2582.563405   13375.051765   
5597.698849   945.547095   27120.209172   -97.240831   -2746.304675   9920.351572   
5542.143832   965.329914   27961.561908   -235.417373   -2856.124175   6244.411998   
5939.849071   971.976539   28634.390610   -346.784908   -2909.034687   2620.116691   
6720.727711   944.888210   28988.454395   -406.575989   -2898.937037   -672.742015   
7794.559522   888.711207   28959.269071   -452.347197   -2841.124676   -3464.990413   
8579.872421   643.409507   28308.702604   -484.262301   -2657.213275   -5521.431074   
9979.145987   1031.348703   27890.909625   57.650708   -2419.676354   -7354.550170   
8378.780465   1027.189193   26399.105957   303.023406   -1079.274998   -7902.699762   
729.062223   -1057.168539   6684.330924   1255.891108   -1466.906175   2792.444869   
1864.990606   -776.355204   13434.729760   1655.483017   -1697.086471   10579.331547   
8089.421769   548.417810   16559.972468   1127.158559   -1299.129359   16202.211540   
10086.172471   4.267078   16606.505502   813.210246   -763.809586   18442.275093   
11645.396064   90.641890   18489.268820   663.721714   -292.156994   20336.982973   
11922.837186   -6.321387   20507.704778   497.449503   88.307935   21515.522725   
11523.364698   -1.318825   22967.857975   326.851257   444.453554   22035.307635   
10511.476979   -55.582971   25264.056883   170.339326   750.646847   21516.069474   
9379.214858   -60.574478   27356.751122   65.460685   1003.300935   19982.118104   
8275.540370   -60.259676   29179.912238   64.001690   1209.757930   17449.130803   
7496.955699   -51.776152   30698.853029   117.893926   1377.774551   14076.859962   
7168.099700   -43.251790   31943.936210   228.047846   1499.405667   10181.714097   
7334.580050   -47.171847   32890.320464   326.504353   1599.779222   6008.887094   
8051.462546   -53.699574   33409.246472   375.239670   1647.301656   1882.067682   
9189.989921   -73.618076   33397.672148   368.788977   1621.319149   -1822.003644   
10555.293278   -119.224489   32828.589398   357.261729   1535.916200   -4830.533082   
11528.747145   -268.607331   31671.544955   258.958941   1392.206773   -6984.534099   
12706.867946   191.568996   30582.659663   -371.846817   1200.858737   -8465.670754   
11073.850294   917.569769   28805.637179   -1663.610066   824.809275   -8872.486777   
24437.055065   18089.415018   35796.981032   -14982.310494   -1.531067   -8534.607902   
2265.006951   -374.475312   14374.313054   -912.312708   751.132957   9325.541347   
-157.568566   -1456.173375   6240.945592   -668.033845   851.660829   1545.910543   
2265.006951   -374.475312   14374.313054   -912.312708   751.132957   9325.541347   
9215.426415   1460.465063   18474.125332   -859.289247   404.398539   14931.977408   
11327.262239   1065.197071   18901.849041   -760.759955   79.355360   17116.053846   
12888.407471   1165.805739   20830.136912   -673.758121   -252.197429   19067.966929   
13164.766825   1039.184755   22750.795611   -582.690358   -568.640707   20276.998225   
12698.583614   958.694920   24992.684874   -479.783190   -873.636595   20851.627873   
11550.262111   781.317977   27014.941580   -375.510852   -1157.043014   20443.323397   
10198.379844   620.832658   28808.943258   -290.600344   -1408.088799   19058.568096   
8860.033962   472.031041   30369.721035   -243.110163   -1620.210142   16690.294074   
7907.660988   367.878241   31686.995718   -232.296720   -1792.631659   13478.600627   
7499.031192   314.667187   32806.067974   -241.280868   -1923.534011   9750.789195   
7736.941182   337.031457   33768.637010   -243.488282   -2004.484302   5770.317029   
8622.365056   423.804925   34430.025623   -215.599321   -2028.439628   1867.911865   
10010.586486   545.675554   34641.387684   -141.924085   -1990.241971   -1574.119721   
11711.286149   699.676981   34402.268093   -7.325501   -1881.792956   -4316.408188   
13931.792795   1108.728195   33859.617726   333.374880   -1696.417623   -6085.706752   
15399.715347   1694.453380   32899.426875   887.293165   -1392.316614   -7020.857390   
20364.919975   5112.463758   33497.547461   2458.827843   -1012.268525   -6856.962038   
1864.990606   -776.355204   13434.729760   -1655.483017   1697.086471   10579.331547   
729.062223   -1057.168539   6684.330924   -1255.891108   1466.906175   2792.444869   
1864.990606   -776.355204   13434.729760   -1655.483017   1697.086471   10579.331547   
8089.421769   548.417810   16559.972468   -1127.158559   1299.129359   16202.211540   
10086.172471   4.267078   16606.505502   -813.210246   763.809586   18442.275093   
11645.396064   90.641890   18489.268820   -663.721714   292.156994   20336.982973   
11922.837186   -6.321387   20507.704778   -497.449503   -88.307935   21515.522725   
11523.364698   -1.318825   22967.857975   -326.851257   -444.453554   22035.307635   
10511.476979   -55.582971   25264.056883   -170.339326   -750.646847   21516.069474   
9379.214858   -60.574478   27356.751122   -65.460685   -1003.300935   19982.118104   
8275.540370   -60.259676   29179.912238   -64.001690   -1209.757930   17449.130803   
7496.955699   -51.776152   30698.853029   -117.893926   -1377.774551   14076.859962   
7168.099700   -43.251790   31943.936210   -228.047846   -1499.405667   10181.714097   
7334.580050   -47.171847   32890.320464   -326.504353   -1599.779222   6008.887094   
8051.462546   -53.699574   33409.246472   -375.239670   -1647.301656   1882.067682   
9189.989921   -73.618076   33397.672148   -368.788977   -1621.319149   -1822.003644   
10555.293278   -119.224489   32828.589398   -357.261729   -1535.916200   -4830.533082   
11528.747145   -268.607331   31671.544955   -258.958941   -1392.206773   -6984.534099   
12706.867946   191.568996   30582.659663   371.846817   -1200.858737   -8465.670754   
11073.850294   917.569769   28805.637179   1663.610066   -824.809275   -8872.486777   
-1237.406565   -2044.417923   0.865033   848.076928   -1725.382537   496.447238   
2222.763075   -414.732538   9065.162814   1691.010787   -1446.191119   7448.878868   
4992.011419   -434.887335   12029.352198   1480.523430   -1517.285063   11234.240833   
8826.433091   -84.440481   14641.072103   1259.932760   -1259.234262   15821.259091   
11225.815038   -198.924091   16564.682711   1076.171770   -901.580116   18745.061726   
12681.246026   -139.477347   19501.748591   915.778529   -469.507416   21334.176564   
12773.320259   -220.956975   22778.212183   719.271639   -19.462492   22759.537491   
12093.058190   -217.979157   26423.739756   491.799122   396.604691   22948.553197   
10726.749947   -310.520560   29750.702149   327.739493   740.354656   21439.452149   
9648.545461   -296.907991   32621.504417   234.262558   977.171142   18652.665853   
8814.234480   -301.819087   34983.335576   305.970692   1176.989594   14860.130053   
8545.252772   -340.215055   36686.442473   368.488822   1394.353780   10193.526033   
9106.094407   -341.435211   37648.801032   395.991657   1506.980756   5202.509345   
10298.179881   -344.691002   37793.685014   377.612058   1527.997278   427.429602   
11950.903820   -346.881404   37059.173476   259.021354   1444.063658   -3696.740981   
13654.941024   -401.902123   35507.981995   178.355507   1253.003699   -6749.505949   
14557.500129   -628.046291   33283.670070   36.256216   1000.994964   -8583.608729   
15469.079378   -169.031665   31327.366646   -624.203440   750.040251   -9563.716335   
13335.124847   629.574702   28744.473791   -2044.718555   363.923358   -9404.368902   
27456.788360   19127.468425   36233.263729   -16019.150096   0.723310   -8887.547064   
2042.775146   -430.309068   9193.228977   -1085.697177   921.469481   7020.059816   
-1077.343603   -1868.934770   425.745915   -1036.884231   902.915137   598.168652   
2042.775146   -430.309068   9193.228977   -1085.697177   921.469481   7020.059816   
5619.200178   73.851005   13097.957906   -1097.187422   794.891783   10648.705180   
9700.391251   656.590054   16237.215727   -1034.342911   601.737019   14884.533828   
12229.058758   688.933548   18520.964452   -972.264485   331.334657   17580.846395   
13759.220286   794.763666   21537.911039   -907.484652   6.235825   19946.561364   
13905.552205   695.434643   24700.618965   -817.591259   -355.929515   21250.302594   
13151.361395   583.173829   28035.946504   -699.343622   -725.783636   21454.608419   
11575.454169   300.739956   30939.532981   -575.695141   -1070.999970   20108.934270   
10208.752219   98.456406   33379.178980   -475.123624   -1365.253080   17571.639626   
9156.273690   -56.340737   35459.557533   -409.772819   -1592.823683   14060.325622   
8897.036700   -100.093647   37135.063236   -357.716974   -1745.355975   9713.127307   
9578.849768   -37.533926   38189.049955   -287.587824   -1821.869082   5080.406853   
10974.939486   82.379095   38540.492399   -182.951929   -1812.686642   697.357829   
12913.168663   272.205377   38160.531236   -34.735036   -1713.568750   -3091.789349   
14908.233959   408.712660   36956.738335   161.729018   -1533.563260   -5857.674108   
17271.145872   866.657592   35552.370605   577.134021   -1300.234148   -7562.320397   
18333.515251   1376.353233   33614.213766   1211.632229   -1003.480352   -8252.833342   
23576.339080   5313.532398   34116.451878   2930.709107   -716.009354   -8320.632334   
2222.763075   -414.732538   9065.162814   -1691.010787   1446.191119   7448.878868   
-1237.406565   -2044.417923   0.865033   -848.076928   1725.382537   496.447238   
2222.763075   -414.732538   9065.162814   -1691.010787   1446.191119   7448.878868   
4992.011419   -434.887335   12029.352198   -1480.523430   1517.285063   11234.240833   
8826.433091   -84.440481   14641.072103   -1259.932760   1259.234262   15821.259091   
11225.815038   -198.924091   16564.682711   -1076.171770   901.580116   18745.061726   
12681.246026   -139.477347   19501.748591   -915.778529   469.507416   21334.176564   
12773.320259   -220.956975   22778.212183   -719.271639   19.462492   22759.537491   
12093.058190   -217.979157   26423.739756   -491.799122   -396.604691   22948.553197   
10726.749947   -310.520560   29750.702149   -327.739493   -740.354656   21439.452149   