<VTKFile type="UnstructuredGrid"  version="0.1"   > 
<UnstructuredGrid> 
<Piece  NumberOfPoints="  1156" NumberOfCells=" 1089"> 
<Points> 
<DataArray  type="Float64"  NumberOfComponents="3"  format="ascii" > 
0.000000 0.000000 0.0 
0.547619 0.000000 0.0 
0.857143 0.000000 0.0 
1.142857 0.000000 0.0 
1.428571 0.000000 0.0 
1.714286 0.000000 0.0 
2.000000 0.000000 0.0 
2.285714 0.000000 0.0 
2.571429 0.000000 0.0 
2.857143 0.000000 0.0 
3.142857 0.000000 0.0 
3.428571 0.000000 0.0 
3.714286 0.000000 0.0 
4.000000 0.000000 0.0 
4.285714 0.000000 0.0 
4.571429 0.000000 0.0 
4.857143 0.000000 0.0 
5.142857 0.000000 0.0 
5.428571 0.000000 0.0 
5.714286 0.000000 0.0 
6.000000 0.000000 0.0 
6.285714 0.000000 0.0 
6.571429 0.000000 0.0 
6.857143 0.000000 0.0 
7.142857 0.000000 0.0 
7.428571 0.000000 0.0 
7.714286 0.000000 0.0 
8.000000 0.000000 0.0 
8.285714 0.000000 0.0 
8.571429 0.000000 0.0 
8.857143 0.000000 0.0 
9.142857 0.000000 0.0 
9.452381 0.000000 0.0 
10.000000 0.000000 0.0 
0.000000 0.547619 0.0 
0.547619 0.547619 0.0 
0.857143 0.547619 0.0 
1.142857 0.547619 0.0 
1.428571 0.547619 0.0 
1.714286 0.547619 0.0 
2.000000 0.547619 0.0 
2.285714 0.547619 0.0 
2.571429 0.547619 0.0 
2.857143 0.547619 0.0 
3.142857 0.547619 0.0 
3.428571 0.547619 0.0 
3.714286 0.547619 0.0 
4.000000 0.547619 0.0 
4.285714 0.547619 0.0 
4.571429 0.547619 0.0 
4.857143 0.547619 0.0 
5.142857 0.547619 0.0 
5.428571 0.547619 0.0 
5.714286 0.547619 0.0 
6.000000 0.547619 0.0 
6.285714 0.547619 0.0 
6.571429 0.547619 0.0 
6.857143 0.547619 0.0 
7.142857 0.547619 0.0 
7.428571 0.547619 0.0 
7.714286 0.547619 0.0 
8.000000 0.547619 0.0 
8.285714 0.547619 0.0 
8.571429 0.547619 0.0 
8.857143 0.547619 0.0 
9.142857 0.547619 0.0 
9.452381 0.547619 0.0 
10.000000 0.547619 0.0 
0.000000 0.857143 0.0 
0.547619 0.857143 0.0 
0.857143 0.857143 0.0 
1.142857 0.857143 0.0 
1.428571 0.857143 0.0 
1.714286 0.857143 0.0 
2.000000 0.857143 0.0 
2.285714 0.857143 0.0 
2.571429 0.857143 0.0 
2.857143 0.857143 0.0 
3.142857 0.857143 0.0 
3.428571 0.857143 0.0 
3.714286 0.857143 0.0 
4.000000 0.857143 0.0 
4.285714 0.857143 0.0 
4.571429 0.857143 0.0 
4.857143 0.857143 0.0 
5.142857 0.857143 0.0 
5.428571 0.857143 0.0 
5.714286 0.857143 0.0 
6.000000 0.857143 0.0 
6.285714 0.857143 0.0 
6.571429 0.857143 0.0 
6.857143 0.857143 0.0 
7.142857 0.857143 0.0 
7.428571 0.857143 0.0 
7.714286 0.857143 0.0 
8.000000 0.857143 0.0 
8.285714 0.857143 0.0 
8.571429 0.857143 0.0 
8.857143 0.857143 0.0 
9.142857 0.857143 0.0 
9.452381 0.857143 0.0 
10.000000 0.857143 0.0 
0.000000 1.142857 0.0 
0.547619 1.142857 0.0 
0.857143 1.142857 0.0 
1.142857 1.142857 0.0 
1.428571 1.142857 0.0 
1.714286 1.142857 0.0 
2.000000 1.142857 0.0 
2.285714 1.142857 0.0 
2.571429 1.142857 0.0 
2.857143 1.142857 0.0 
3.142857 1.142857 0.0 
3.428571 1.142857 0.0 
3.714286 1.142857 0.0 
4.000000 1.142857 0.0 
4.285714 1.142857 0.0 
4.571429 1.142857 0.0 
4.857143 1.142857 0.0 
5.142857 1.142857 0.0 
5.428571 1.142857 0.0 
5.714286 1.142857 0.0 
6.000000 1.142857 0.0 
6.285714 1.142857 0.0 
6.571429 1.142857 0.0 
6.857143 1.142857 0.0 
7.142857 1.142857 0.0 
7.428571 1.142857 0.0 
7.714286 1.142857 0.0 
8.000000 1.142857 0.0 
8.285714 1.142857 0.0 
8.571429 1.142857 0.0 
8.857143 1.142857 0.0 
9.142857 1.142857 0.0 
9.452381 1.142857 0.0 
10.000000 1.142857 0.0 
0.000000 1.428571 0.0 
0.547619 1.428571 0.0 
0.857143 1.428571 0.0 
1.142857 1.428571 0.0 
1.428571 1.428571 0.0 
1.714286 1.428571 0.0 
2.000000 1.428571 0.0 
2.285714 1.428571 0.0 
2.571429 1.428571 0.0 
2.857143 1.428571 0.0 
3.142857 1.428571 0.0 
3.428571 1.428571 0.0 
3.714286 1.428571 0.0 
4.000000 1.428571 0.0 
4.285714 1.428571 0.0 
4.571429 1.428571 0.0 
4.857143 1.428571 0.0 
5.142857 1.428571 0.0 
5.428571 1.428571 0.0 
5.714286 1.428571 0.0 
6.000000 1.428571 0.0 
6.285714 1.428571 0.0 
6.571429 1.428571 0.0 
6.857143 1.428571 0.0 
7.142857 1.428571 0.0 
7.428571 1.428571 0.0 
7.714286 1.428571 0.0 
8.000000 1.428571 0.0 
8.285714 1.428571 0.0 
8.571429 1.428571 0.0 
8.857143 1.428571 0.0 
9.142857 1.428571 0.0 
9.452381 1.428571 0.0 
10.000000 1.428571 0.0 
0.000000 1.714286 0.0 
0.547619 1.714286 0.0 
0.857143 1.714286 0.0 
1.142857 1.714286 0.0 
1.428571 1.714286 0.0 
1.714286 1.714286 0.0 
2.000000 1.714286 0.0 
2.285714 1.714286 0.0 
2.571429 1.714286 0.0 
2.857143 1.714286 0.0 
3.142857 1.714286 0.0 
3.428571 1.714286 0.0 
3.714286 1.714286 0.0 
4.000000 1.714286 0.0 
4.285714 1.714286 0.0 
4.571429 1.714286 0.0 
4.857143 1.714286 0.0 
5.142857 1.714286 0.0 
5.428571 1.714286 0.0 
5.714286 1.714286 0.0 
6.000000 1.714286 0.0 
6.285714 1.714286 0.0 
6.571429 1.714286 0.0 
6.857143 1.714286 0.0 
7.142857 1.714286 0.0 
7.428571 1.714286 0.0 
7.714286 1.714286 0.0 
8.000000 1.714286 0.0 
8.285714 1.714286 0.0 
8.571429 1.714286 0.0 
8.857143 1.714286 0.0 
9.142857 1.714286 0.0 
9.452381 1.714286 0.0 
10.000000 1.714286 0.0 
0.000000 2.000000 0.0 
0.547619 2.000000 0.0 
0.857143 2.000000 0.0 
1.142857 2.000000 0.0 
1.428571 2.000000 0.0 
1.714286 2.000000 0.0 
2.000000 2.000000 0.0 
2.285714 2.000000 0.0 
2.571429 2.000000 0.0 
2.857143 2.000000 0.0 
3.142857 2.000000 0.0 
3.428571 2.000000 0.0 
3.714286 2.000000 0.0 
4.000000 2.000000 0.0 
4.285714 2.000000 0.0 
4.571429 2.000000 0.0 
4.857143 2.000000 0.0 
5.142857 2.000000 0.0 
5.428571 2.000000 0.0 
5.714286 2.000000 0.0 
6.000000 2.000000 0.0 
6.285714 2.000000 0.0 
6.571429 2.000000 0.0 
6.857143 2.000000 0.0 
7.142857 2.000000 0.0 
7.428571 2.000000 0.0 
7.714286 2.000000 0.0 
8.000000 2.000000 0.0 
8.285714 2.000000 0.0 
8.571429 2.000000 0.0 
8.857143 2.000000 0.0 
9.142857 2.000000 0.0 
9.452381 2.000000 0.0 
10.000000 2.000000 0.0 
0.000000 2.285714 0.0 
0.547619 2.285714 0.0 
0.857143 2.285714 0.0 
1.142857 2.285714 0.0 
1.428571 2.285714 0.0 
1.714286 2.285714 0.0 
2.000000 2.285714 0.0 
2.285714 2.285714 0.0 
2.571429 2.285714 0.0 
2.857143 2.285714 0.0 
3.142857 2.285714 0.0 
3.428571 2.285714 0.0 
3.714286 2.285714 0.0 
4.000000 2.285714 0.0 
4.285714 2.285714 0.0 
4.571429 2.285714 0.0 
4.857143 2.285714 0.0 
5.142857 2.285714 0.0 
5.428571 2.285714 0.0 
5.714286 2.285714 0.0 
6.000000 2.285714 0.0 
6.285714 2.285714 0.0 
6.571429 2.285714 0.0 
6.857143 2.285714 0.0 
7.142857 2.285714 0.0 
7.428571 2.285714 0.0 
7.714286 2.285714 0.0 
8.000000 2.285714 0.0 
8.285714 2.285714 0.0 
8.571429 2.285714 0.0 
8.857143 2.285714 0.0 
9.142857 2.285714 0.0 
9.452381 2.285714 0.0 
10.000000 2.285714 0.0 
0.000000 2.571429 0.0 
0.547619 2.571429 0.0 
0.857143 2.571429 0.0 
1.142857 2.571429 0.0 
1.428571 2.571429 0.0 
1.714286 2.571429 0.0 
2.000000 2.571429 0.0 
2.285714 2.571429 0.0 
2.571429 2.571429 0.0 
2.857143 2.571429 0.0 
3.142857 2.571429 0.0 
3.428571 2.571429 0.0 
3.714286 2.571429 0.0 
4.000000 2.571429 0.0 
4.285714 2.571429 0.0 
4.571429 2.571429 0.0 
4.857143 2.571429 0.0 
5.142857 2.571429 0.0 
5.428571 2.571429 0.0 
5.714286 2.571429 0.0 
6.000000 2.571429 0.0 
6.285714 2.571429 0.0 
6.571429 2.571429 0.0 
6.857143 2.571429 0.0 
7.142857 2.571429 0.0 
7.428571 2.571429 0.0 
7.714286 2.571429 0.0 
8.000000 2.571429 0.0 
8.285714 2.571429 0.0 
8.571429 2.571429 0.0 
8.857143 2.571429 0.0 
9.142857 2.571429 0.0 
9.452381 2.571429 0.0 
10.000000 2.571429 0.0 
0.000000 2.857143 0.0 
0.547619 2.857143 0.0 
0.857143 2.857143 0.0 
1.142857 2.857143 0.0 
1.428571 2.857143 0.0 
1.714286 2.857143 0.0 
2.000000 2.857143 0.0 
2.285714 2.857143 0.0 
2.571429 2.857143 0.0 
2.857143 2.857143 0.0 
3.142857 2.857143 0.0 
3.428571 2.857143 0.0 
3.714286 2.857143 0.0 
4.000000 2.857143 0.0 
4.285714 2.857143 0.0 
4.571429 2.857143 0.0 
4.857143 2.857143 0.0 
5.142857 2.857143 0.0 
5.428571 2.857143 0.0 
5.714286 2.857143 0.0 
6.000000 2.857143 0.0 
6.285714 2.857143 0.0 
6.571429 2.857143 0.0 
6.857143 2.857143 0.0 
7.142857 2.857143 0.0 
7.428571 2.857143 0.0 
7.714286 2.857143 0.0 
8.000000 2.857143 0.0 
8.285714 2.857143 0.0 
8.571429 2.857143 0.0 
8.857143 2.857143 0.0 
9.142857 2.857143 0.0 
9.452381 2.857143 0.0 
10.000000 2.857143 0.0 
0.000000 3.142857 0.0 
0.547619 3.142857 0.0 
0.857143 3.142857 0.0 
1.142857 3.142857 0.0 
1.428571 3.142857 0.0 
1.714286 3.142857 0.0 
2.000000 3.142857 0.0 
2.285714 3.142857 0.0 
2.571429 3.142857 0.0 
2.857143 3.142857 0.0 
3.142857 3.142857 0.0 
3.428571 3.142857 0.0 
3.714286 3.142857 0.0 
4.000000 3.142857 0.0 
4.285714 3.142857 0.0 
4.571429 3.142857 0.0 
4.857143 3.142857 0.0 
5.142857 3.142857 0.0 
5.428571 3.142857 0.0 
5.714286 3.142857 0.0 
6.000000 3.142857 0.0 
6.285714 3.142857 0.0 
6.571429 3.142857 0.0 
6.857143 3.142857 0.0 
7.142857 3.142857 0.0 
7.428571 3.142857 0.0 
7.714286 3.142857 0.0 
8.000000 3.142857 0.0 
8.285714 3.142857 0.0 
8.571429 3.142857 0.0 
8.857143 3.142857 0.0 
9.142857 3.142857 0.0 
9.452381 3.142857 0.0 
10.000000 3.142857 0.0 
0.000000 3.428571 0.0 
0.547619 3.428571 0.0 
0.857143 3.428571 0.0 
1.142857 3.428571 0.0 
1.428571 3.428571 0.0 
1.714286 3.428571 0.0 
2.000000 3.428571 0.0 
2.285714 3.428571 0.0 
2.571429 3.428571 0.0 
2.857143 3.428571 0.0 
3.142857 3.428571 0.0 
3.428571 3.428571 0.0 
3.714286 3.428571 0.0 
4.000000 3.428571 0.0 
4.285714 3.428571 0.0 
4.571429 3.428571 0.0 
4.857143 3.428571 0.0 
5.142857 3.428571 0.0 
5.428571 3.428571 0.0 
5.714286 3.428571 0.0 
6.000000 3.428571 0.0 
6.285714 3.428571 0.0 
6.571429 3.428571 0.0 
6.857143 3.428571 0.0 
7.142857 3.428571 0.0 
7.428571 3.428571 0.0 
7.714286 3.428571 0.0 
8.000000 3.428571 0.0 
8.285714 3.428571 0.0 
8.571429 3.428571 0.0 
8.857143 3.428571 0.0 
9.142857 3.428571 0.0 
9.452381 3.428571 0.0 
10.000000 3.428571 0.0 
0.000000 3.714286 0.0 
0.547619 3.714286 0.0 
0.857143 3.714286 0.0 
1.142857 3.714286 0.0 
1.428571 3.714286 0.0 
1.714286 3.714286 0.0 
2.000000 3.714286 0.0 
2.285714 3.714286 0.0 
2.571429 3.714286 0.0 
2.857143 3.714286 0.0 
3.142857 3.714286 0.0 
3.428571 3.714286 0.0 
3.714286 3.714286 0.0 
4.000000 3.714286 0.0 
4.285714 3.714286 0.0 
4.571429 3.714286 0.0 
4.857143 3.714286 0.0 
[...]
<PointData  Vectors="sigma"> 
<DataArray  type="Float64"  Name="sigma" NumberOfComponents="4" format="ascii"> 
0.077711   0.037114   0.049005   0.108336   
0.080437   0.045761   0.054900   0.118006   
0.081662   0.051547   0.058366   0.123839   
0.082532   0.057533   0.061594   0.129440   
0.083104   0.064184   0.064795   0.135229   
0.083335   0.071536   0.067896   0.141174   
0.083187   0.079612   0.070811   0.147235   
0.082629   0.088416   0.073440   0.153361   
0.081645   0.097925   0.075667   0.159488   
0.080237   0.108083   0.077366   0.165542   
0.078431   0.118798   0.078409   0.171438   
0.076279   0.129934   0.078673   0.177083   
0.073864   0.141313   0.078049   0.182380   
0.071295   0.152720   0.076456   0.187230   
0.068704   0.163911   0.073852   0.191541   
0.066235   0.174623   0.070242   0.195232   
0.064035   0.184598   0.065682   0.198239   
0.062237   0.193601   0.060282   0.200518   
0.060951   0.201435   0.054194   0.202050   
0.060251   0.207955   0.047603   0.202841   
0.060171   0.213084   0.040713   0.202920   
0.060705   0.216804   0.033725   0.202336   
0.061810   0.219157   0.026827   0.201155   
0.063416   0.220235   0.020184   0.199451   
0.065432   0.220164   0.013923   0.197305   
0.067759   0.219092   0.008140   0.194797   
0.070298   0.217178   0.002894   0.192005   
0.072956   0.214578   -0.001787   0.189001   
0.075649   0.211440   -0.005899   0.185847   
0.078309   0.207898   -0.009460   0.182598   
0.080879   0.204068   -0.012500   0.179301   
0.083318   0.200050   -0.015058   0.175995   
0.085778   0.195579   -0.017338   0.172437   
0.089602   0.187611   -0.020298   0.166289   
0.078509   0.031205   0.045486   0.104376   
0.082351   0.039330   0.051931   0.114805   
0.084262   0.044911   0.055851   0.121206   
0.085781   0.050800   0.059604   0.127433   
0.087001   0.057474   0.063433   0.133953   
0.087856   0.065007   0.067266   0.140739   
0.088279   0.073458   0.071008   0.147753   
0.088210   0.082871   0.074537   0.154939   
0.087599   0.093256   0.077707   0.162223   
0.086420   0.104584   0.080346   0.169513   
0.084677   0.116771   0.082268   0.176697   
0.082413   0.129669   0.083278   0.183645   
0.079720   0.143058   0.083198   0.190216   
0.076736   0.156649   0.081878   0.196262   
0.073644   0.170093   0.079226   0.201640   
0.070656   0.183007   0.075220   0.206222   
0.067991   0.194999   0.069928   0.209903   
0.065853   0.205710   0.063504   0.212614   
0.064406   0.214846   0.056175   0.214328   
0.063753   0.222204   0.048224   0.215057   
0.063930   0.227687   0.039956   0.214853   
0.064908   0.231304   0.031669   0.213799   
0.066600   0.233157   0.023628   0.212000   
0.068881   0.233416   0.016047   0.209576   
0.071605   0.232297   0.009082   0.206647   
0.074622   0.230036   0.002828   0.203331   
0.077793   0.226868   -0.002670   0.199733   
0.080995   0.223011   -0.007411   0.195949   
0.084128   0.218661   -0.011425   0.192058   
0.087118   0.213984   -0.014763   0.188124   
0.089909   0.209117   -0.017491   0.184200   
0.092466   0.204169   -0.019675   0.180326   
0.094952   0.198814   -0.021511   0.176219   
0.098607   0.189579   -0.023652   0.169257   
0.078463   0.027715   0.043018   0.101496   
0.083009   0.035405   0.049693   0.112308   
0.085372   0.040773   0.053836   0.119017   
0.087338   0.046509   0.057867   0.125598   
0.089021   0.053095   0.062051   0.132546   
0.090342   0.060627   0.066321   0.139842   
0.091214   0.069197   0.070582   0.147451   
0.091552   0.078881   0.074704   0.155320   
0.091282   0.089723   0.078523   0.163371   
0.090349   0.101723   0.081840   0.171502   
0.088732   0.114816   0.084424   0.179584   
0.086461   0.128855   0.086030   0.187461   
0.083624   0.143600   0.086415   0.194956   
0.080379   0.158710   0.085370   0.201884   
0.076943   0.173759   0.082753   0.208055   
0.073583   0.188260   0.078513   0.213299   
0.070580   0.201709   0.072721   0.217478   
0.068199   0.213641   0.065565   0.220499   
0.066650   0.223677   0.057339   0.222325   
0.066060   0.231565   0.048408   0.222978   
0.066463   0.237204   0.039166   0.222530   
0.067802   0.240631   0.029988   0.221095   
0.069949   0.242008   0.021197   0.218816   
0.072731   0.241579   0.013042   0.215847   
0.075956   0.239635   0.005687   0.212343   
0.079437   0.236483   -0.000779   0.208448   
0.083005   0.232413   -0.006336   0.204290   
0.086525   0.227688   -0.011008   0.199978   
0.089888   0.222531   -0.014858   0.195600   
0.093023   0.217125   -0.017963   0.191225   
0.095880   0.211614   -0.020414   0.186907   
0.098435   0.206107   -0.022300   0.182684   
0.100853   0.200239   -0.023802   0.178246   
0.104264   0.190300   -0.025374   0.170807   
0.078004   0.024443   0.040417   0.098367   
0.083231   0.031635   0.047226   0.109481   
0.086050   0.036737   0.051536   0.116451   
0.088478   0.042256   0.055794   0.123346   
0.090655   0.048675   0.060288   0.130687   
0.092488   0.056118   0.064960   0.138465   
0.093872   0.064710   0.069720   0.146655   
0.094697   0.074565   0.074437   0.155206   
0.094856   0.085771   0.078934   0.164043   
0.094260   0.098368   0.082985   0.173056   
0.092854   0.112325   0.086316   0.182100   
0.090642   0.127510   0.088620   0.190991   
0.087703   0.143668   0.089580   0.199514   
0.084204   0.160410   0.088908   0.207434   
0.080404   0.177219   0.086392   0.214506   
0.076633   0.193482   0.081939   0.220506   
0.073253   0.208556   0.075615   0.225249   
0.070604   0.221835   0.067652   0.228612   
0.068956   0.232835   0.058425   0.230547   
0.068463   0.241247   0.048407   0.231086   
0.069151   0.246968   0.038103   0.230331   
0.070925   0.250085   0.027983   0.228440   
0.073600   0.250839   0.018434   0.225599   
0.076941   0.249573   0.009735   0.222010   
0.080702   0.246672   0.002054   0.217866   
0.084654   0.242522   -0.004542   0.213342   
0.088604   0.237477   -0.010066   0.208587   
0.092402   0.231842   -0.014581   0.203725   
0.095942   0.225863   -0.018185   0.198850   
0.099159   0.219736   -0.020990   0.194034   
0.102016   0.213605   -0.023111   0.189329   
0.104502   0.207574   -0.024657   0.184769   
0.106784   0.201236   -0.025798   0.180018   
0.109847   0.190681   -0.026780   0.172138   
0.077064   0.021167   0.037504   0.094738   
0.082981   0.027770   0.044353   0.106086   
0.086283   0.032533   0.048775   0.113283   
0.089215   0.037756   0.053215   0.120466   
0.091949   0.043914   0.057983   0.128185   
0.094379   0.051163   0.063036   0.136444   
0.096381   0.059665   0.068297   0.145231   
0.097818   0.069583   0.073642   0.154509   
0.098545   0.081061   0.078888   0.164206   
0.098428   0.094199   0.083785   0.174211   
0.097363   0.109019   0.088014   0.184363   
0.095310   0.125425   0.091196   0.194451   
0.092321   0.143165   0.092916   0.204212   
0.088570   0.161799   0.092777   0.213345   
0.084358   0.180701   0.090464   0.221533   
0.080096   0.199097   0.085815   0.228474   
0.076255   0.216143   0.078880   0.233916   
0.073284   0.231043   0.069944   0.237689   
0.071535   0.243164   0.059500   0.239734   
0.071196   0.252124   0.048172   0.240098   
0.072273   0.257828   0.036615   0.238928   
0.074612   0.260444   0.025422   0.236442   
0.077945   0.260336   0.015058   0.232892   
0.081953   0.257982   0.005828   0.228540   
0.086322   0.253893   -0.002114   0.223629   
0.090777   0.248552   -0.008742   0.218369   
0.095100   0.242384   -0.014118   0.212935   
0.099139   0.235733   -0.018358   0.207459   
0.102795   0.228868   -0.021608   0.202043   
0.106018   0.221984   -0.024017   0.196756   
0.108792   0.215222   -0.025730   0.191645   
0.111125   0.208674   -0.026875   0.186739   
0.113182   0.201888   -0.027605   0.181673   
0.115759   0.190767   -0.027948   0.173357   
0.075554   0.017939   0.034290   0.090567   
0.082146   0.023867   0.041063   0.102056   
0.085943   0.028220   0.045526   0.109431   
0.089410   0.033060   0.050083   0.116859   
0.092754   0.038853   0.055064   0.124922   
0.095863   0.045784   0.060452   0.133642   
0.098598   0.054057   0.066190   0.143028   
0.100791   0.063892   0.072172   0.153061   
0.102257   0.075505   0.078223   0.163686   
0.102804   0.089077   0.084079   0.174796   
0.102261   0.104714   0.089377   0.186222   
0.100519   0.122390   0.093655   0.197724   
0.097579   0.141882   0.096379   0.208983   
0.093599   0.162711   0.096998   0.219618   
0.088924   0.184125   0.095044   0.229209   
0.084071   0.205132   0.090239   0.237341   
0.079659   0.224613   0.082598   0.243663   
0.076296   0.241493   0.072477   0.247938   
0.074448   0.254927   0.060530   0.250086   
0.074348   0.264437   0.047601   0.250183   
0.075964   0.269961   0.034556   0.248444   
0.079043   0.271800   0.022152   0.245176   
0.083195   0.270505   0.010936   0.240725   
0.087990   0.266744   0.001226   0.235432   
0.093031   0.261189   -0.006864   0.229602   
0.097996   0.254442   -0.013376   0.223487   
0.102654   0.246998   -0.018449   0.217282   
0.106857   0.239237   -0.022270   0.211131   
0.110531   0.231435   -0.025040   0.205133   
0.113653   0.223781   -0.026951   0.199351   
0.116233   0.216399   -0.028175   0.193823   
0.118307   0.209358   -0.028861   0.188568   
0.120035   0.202160   -0.029139   0.183189   
0.121966   0.190547   -0.028808   0.174451   
0.073385   0.014816   0.030801   0.085812   
0.080600   0.019998   0.037362   0.097325   
0.084881   0.023873   0.041777   0.104807   
0.088895   0.028245   0.046363   0.112418   
0.092887   0.033562   0.051471   0.120767   
0.096746   0.040036   0.057111   0.129902   
0.100324   0.047914   0.063265   0.139861   
0.103432   0.057479   0.069857   0.150655   
0.105839   0.069031   0.076738   0.162257   
0.107286   0.082861   0.083649   0.174580   
0.107514   0.099199   0.090197   0.187459   
0.106311   0.118139   0.095834   0.200629   
0.103585   0.139535   0.099879   0.213714   
0.099446   0.162904   0.101574   0.226228   
0.094267   0.187354   0.100218   0.237609   
0.088696   0.211608   0.095343   0.247279   
0.083566   0.234148   0.086886   0.254734   
0.079715   0.253488   0.075291   0.259634   
0.077784   0.268469   0.061456   0.261866   
0.078055   0.278492   0.046544   0.261556   
0.080421   0.283570   0.031729   0.259026   
0.084472   0.284230   0.017975   0.254719   
0.089639   0.281308   0.005914   0.249114   
0.095344   0.275737   -0.004158   0.242659   
0.101096   0.268395   -0.012213   0.235733   
0.106535   0.260012   -0.018404   0.228630   
0.111434   0.251149   -0.022977   0.221564   
0.115675   0.242205   -0.026205   0.214679   
0.119223   0.233446   -0.028355   0.208065   
0.122095   0.225036   -0.029662   0.201773   
0.124341   0.217068   -0.030325   0.195825   
0.126027   0.209582   -0.030504   0.190226   
0.127303   0.202027   -0.030301   0.184545   
0.128416   0.190018   -0.029285   0.175410   
0.070466   0.011863   0.027080   0.080437   
0.078207   0.016247   0.033282   0.091830   
0.082933   0.019587   0.037544   0.099327   
0.087474   0.023413   0.042048   0.107033   
0.092122   0.028145   0.047162   0.115579   
0.096777   0.034015   0.052935   0.125049   
0.101294   0.041309   0.059392   0.135517   
0.105473   0.050373   0.066511   0.147038   
0.109045   0.061603   0.074193   0.159631   
0.111684   0.075425   0.082215   0.173252   
0.113018   0.092243   0.090181   0.187762   
0.112692   0.112342   0.097476   0.202891   
0.110457   0.135741   0.103249   0.218206   
0.106307   0.162021   0.106467   0.233096   
0.100609   0.190163   0.106081   0.246803   
0.094165   0.218518   0.101299   0.258505   
0.088112   0.244987   0.091901   0.267458   
0.083645   0.267447   0.078438   0.273151   
0.081665   0.284263   0.062176   0.275423   
0.082514   0.294677   0.044777   0.274487   
0.085941   0.298875   0.027857   0.270841   
0.091272   0.297769   0.012642   0.265139   
0.097678   0.292630   -0.000175   0.258050   
0.104395   0.284756   -0.010387   0.250162   
0.110840   0.275269   -0.018129   0.241937   
0.116641   0.265027   -0.023721   0.233709   
0.121611   0.254633   -0.027550   0.225695   
0.125691   0.244475   -0.029993   0.218029   
0.128910   0.234780   -0.031381   0.210780   
0.131342   0.225666   -0.031988   0.203976   
0.133082   0.217178   -0.032031   0.197617   
0.134231   0.209318   -0.031673   0.191689   
0.134918   0.201482   -0.030980   0.185724   
0.135032   0.189192   -0.029301   0.176227   
0.066713   0.009146   0.023192   0.074416   
0.074833   0.012709   0.028880   0.085514   
0.079925   0.015474   0.032872   0.092910   
0.084933   0.018693   0.037165   0.100594   
0.090199   0.022742   0.042135   0.109215   
0.095649   0.027866   0.047874   0.118893   
0.101160   0.034377   0.054461   0.129752   
0.106539   0.042675   0.061948   0.141908   
0.111504   0.053254   0.070315   0.155447   
0.115668   0.066694   0.079421   0.170400   
0.118541   0.083623   0.088923   0.186693   
0.119577   0.104613   0.098182   0.204089   
0.118284   0.129987   0.106186   0.222124   
0.114423   0.159531   0.111556   0.240047   
0.108263   0.192174   0.112722   0.256836   
0.100760   0.225803   0.108342   0.271297   
0.093492   0.257448   0.097870   0.282288   
0.088225   0.283965   0.081978   0.289013   
0.086276   0.302961   0.062521   0.291234   
0.088042   0.313485   0.041956   0.289318   
0.092982   0.316093   0.022554   0.284069   
0.099991   0.312363   0.005851   0.276475   
0.107865   0.304229   -0.007482   0.267474   
0.115625   0.293472   -0.017459   0.257831   
0.122634   0.281476   -0.024487   0.248089   
0.128566   0.269196   -0.029125   0.238602   
0.133326   0.257221   -0.031932   0.229572   
0.136958   0.245881   -0.033392   0.221099   
0.139581   0.235328   -0.033892   0.213215   
0.141336   0.225607   -0.033728   0.205914   
0.142371   0.216701   -0.033120   0.199167   
0.142818   0.208561   -0.032226   0.192935   
0.142774   0.200535   -0.031062   0.186714   
0.141713   0.188097   -0.028784   0.176897   
0.062057   0.006727   0.019226   0.067733   
0.070349   0.009481   0.024253   0.078336   
0.075683   0.011658   0.027852   0.085491   
0.081046   0.014233   0.031792   0.093005   
0.086830   0.017531   0.036444   0.101534   
0.093004   0.021788   0.041939   0.111242   
0.099489   0.027327   0.048418   0.122306   
0.106132   0.034582   0.056016   0.134919   
0.112674   0.044125   0.064830   0.149263   
0.118706   0.056693   0.074856   0.165486   
0.123638   0.073175   0.085886   0.183638   
0.126706   0.094539   0.097357   0.203589   
0.127070   0.121610   0.108166   0.224905   
0.124069   0.154651   0.116547   0.246723   
0.117666   0.192751   0.120184   0.267676   
0.108905   0.233284   0.116789   0.285998   
0.099999   0.271964   0.105129   0.299873   
0.093664   0.303922   0.085982   0.307983   
0.091913   0.325491   0.062190   0.309965   
0.095156   0.335524   0.037543   0.306484   
0.102275   0.335369   0.015291   0.298888   
0.111442   0.327774   -0.002730   0.288703   
0.120946   0.315660   -0.016084   0.277250   
0.129620   0.301392   -0.025231   0.265485   
0.136869   0.286581   -0.031006   0.254011   
0.142519   0.272179   -0.034274   0.243160   
0.146647   0.258679   -0.035775   0.233078   
0.149444   0.246280   -0.036081   0.223803   
0.151137   0.235015   -0.035608   0.215311   
0.151944   0.224832   -0.034650   0.207548   
0.152056   0.215641   -0.033407   0.200451   
0.151634   0.207338   -0.032012   0.193951   
0.150723   0.199228   -0.030434   0.187509   
0.148328   0.186780   -0.027665   0.177424   
0.056449   0.004660   0.015292   0.060388   
0.064653   0.006658   0.019531   0.070273   
0.070055   0.008266   0.022627   0.077025   
0.075600   0.010197   0.026073   0.084189   
0.081724   0.012713   0.030220   0.092418   
0.088452   0.016030   0.035231   0.101914   
0.095775   0.020451   0.041302   0.112916   
0.103620   0.026410   0.048656   0.125698   
0.111804   0.034519   0.057524   0.140568   
0.119973   0.045631   0.068096   0.157836   
0.127510   0.060898   0.080408   0.177760   
0.133468   0.081766   0.094143   0.200437   
0.136574   0.109815   0.108300   0.225612   
0.135480   0.146236   0.120809   0.252413   
0.129429   0.190799   0.128367   0.279098   
0.119272   0.240527   0.127062   0.303027   
0.108090   0.289132   0.114201   0.321176   
0.100275   0.328677   0.090521   0.331222   
0.099080   0.353205   0.060628   0.332569   
0.104764   0.361498   0.030685   0.326511   
0.115018   0.356636   0.005378   0.315414   
0.126825   0.343425   -0.013380   0.301675   
0.137891   0.326177   -0.025851   0.287112   
0.147021   0.307837   -0.033306   0.272852   
0.153874   0.290065   -0.037171   0.259474   
0.158590   0.273638   -0.038643   0.247208   
0.161501   0.258812   -0.038605   0.236091   
0.162979   0.245583   -0.037662   0.226061   
0.163363   0.233825   -0.036211   0.217019   
0.162933   0.223372   -0.034505   0.208852   
0.161909   0.214055   -0.032701   0.201456   
0.160464   0.205717   -0.030895   0.194734   
0.158569   0.197632   -0.028997   0.188114   
0.154724   0.185309   -0.025894   0.177817   
0.049875   0.002984   0.011522   0.052401   
0.057678   0.004317   0.014887   0.061329   
0.062927   0.005408   0.017389   0.067497   
0.068418   0.006738   0.020219   0.074107   
0.074617   0.008500   0.023689   0.081787   
0.081612   0.010871   0.027974   0.090770   
0.089481   0.014108   0.033306   0.101347   
0.098266   0.018601   0.039976   0.113880   
0.107933   0.024935   0.048346   0.128809   
0.118285   0.033998   0.058824   0.146651   
0.128837   0.047115   0.071795   0.167965   
0.138618   0.066203   0.087413   0.193246   
0.145984   0.093804   0.105157   0.222689   
0.148635   0.132691   0.123048   0.255733   
0.144357   0.184424   0.136756   0.290405   
0.132967   0.246511   0.139691   0.322818   
0.118532   0.309796   0.125952   0.347699   
0.108565   0.360469   0.095632   0.360592   
0.108725   0.388108   0.056772   0.360445   
0.118544   0.392056   0.020034   0.349984   
0.133194   0.379291   -0.007972   0.333577   
0.147849   0.358163   -0.026090   0.315005   
0.159828   0.334654   -0.036208   0.296621   
0.168375   0.311965   -0.040861   0.279560   
0.173761   0.291410   -0.042144   0.264207   
0.176615   0.273306   -0.041499   0.250571   
0.177580   0.257532   -0.039833   0.238506   
0.177199   0.243810   -0.037686   0.227817   
0.175888   0.231836   -0.035371   0.218313   
0.173954   0.221331   -0.033058   0.209820   
0.171616   0.212054   -0.030840   0.202189   
0.169030   0.203808   -0.028760   0.195296   
0.166075   0.195849   -0.026680   0.188541   
0.160722   0.183766   -0.023446   0.178088   
0.042361   0.001714   0.008059   0.043814   
0.049418   0.002508   0.010522   0.051542   
0.054256   0.003167   0.012383   0.056937   
0.059402   0.003982   0.014519   0.062772   
0.065327   0.005079   0.017181   0.069622   
0.072176   0.006583   0.020538   0.077737   
0.080115   0.008685   0.024821   0.087443   
0.089320   0.011686   0.030348   0.099166   
0.099954   0.016071   0.037560   0.113468   
0.112097   0.022632   0.047049   0.131080   
0.125614   0.032680   0.059566   0.152926   
0.139868   0.048381   0.075932   0.180093   
0.153248   0.073190   0.096639   0.213641   
0.162592   0.112081   0.120759   0.254013   
0.163263   0.170379   0.143734   0.299742   
0.151906   0.248840   0.155157   0.345569   
0.132733   0.335121   0.141923   0.381928   
0.119435   0.403281   0.101194   0.399319   
0.122846   0.433160   0.048467   0.395669   
0.139780   0.427248   0.003558   0.377355   
0.160045   0.401562   -0.025255   0.352862   
0.176697   0.369974   -0.040029   0.327927   
0.187749   0.339612   -0.045743   0.305125   
0.193804   0.312937   -0.046467   0.285164   
0.196159   0.290257   -0.044733   0.267944   
0.196006   0.271126   -0.041941   0.253106   
0.194243   0.254939   -0.038817   0.240259   
0.191491   0.241133   -0.035715   0.229054   
0.188165   0.229242   -0.032797   0.219202   
0.184536   0.218898   -0.030124   0.210470   