<VTKFile type="UnstructuredGrid"  version="0.1"   > 
<UnstructuredGrid> 
<Piece  NumberOfPoints="  1056" NumberOfCells=" 992"> 
<Points> 
<DataArray  type="Float64"  NumberOfComponents="3"  format="ascii" > 
0.000000 0.000000 0.0 
0.031250 0.000000 0.0 
0.062500 0.000000 0.0 
0.093750 0.000000 0.0 
0.125000 0.000000 0.0 
0.156250 0.000000 0.0 
0.187500 0.000000 0.0 
0.218750 0.000000 0.0 
0.250000 0.000000 0.0 
0.281250 0.000000 0.0 
0.312500 0.000000 0.0 
0.343750 0.000000 0.0 
0.375000 0.000000 0.0 
0.406250 0.000000 0.0 
0.437500 0.000000 0.0 
0.468750 0.000000 0.0 
0.500000 0.000000 0.0 
0.531250 0.000000 0.0 
0.562500 0.000000 0.0 
0.593750 0.000000 0.0 
0.625000 0.000000 0.0 
0.656250 0.000000 0.0 
0.687500 0.000000 0.0 
0.718750 0.000000 0.0 
0.750000 0.000000 0.0 
0.781250 0.000000 0.0 
0.812500 0.000000 0.0 
0.843750 0.000000 0.0 
0.875000 0.000000 0.0 
0.906250 0.000000 0.0 
0.937500 0.000000 0.0 
0.968750 0.000000 0.0 
1.000000 0.000000 0.0 
0.000000 0.112500 0.0 
0.031250 0.112500 0.0 
0.062500 0.112500 0.0 
0.093750 0.112500 0.0 
0.125000 0.112500 0.0 
0.156250 0.112500 0.0 
0.187500 0.112500 0.0 
0.218750 0.112500 0.0 
0.250000 0.112500 0.0 
0.281250 0.112500 0.0 
0.312500 0.112500 0.0 
0.343750 0.112500 0.0 
0.375000 0.112500 0.0 
0.406250 0.112500 0.0 
0.437500 0.112500 0.0 
0.468750 0.112500 0.0 
0.500000 0.112500 0.0 
0.531250 0.112500 0.0 
0.562500 0.112500 0.0 
0.593750 0.112500 0.0 
0.625000 0.112500 0.0 
0.656250 0.112500 0.0 
0.687500 0.112500 0.0 
0.718750 0.112500 0.0 
0.750000 0.112500 0.0 
0.781250 0.112500 0.0 
0.812500 0.112500 0.0 
0.843750 0.112500 0.0 
0.875000 0.112500 0.0 
0.906250 0.112500 0.0 
0.937500 0.112500 0.0 
0.968750 0.112500 0.0 
1.000000 0.112500 0.0 
0.000000 0.225000 0.0 
0.031250 0.225000 0.0 
0.062500 0.225000 0.0 
0.093750 0.225000 0.0 
0.125000 0.225000 0.0 
0.156250 0.225000 0.0 
0.187500 0.225000 0.0 
0.218750 0.225000 0.0 
0.250000 0.225000 0.0 
0.281250 0.225000 0.0 
0.312500 0.225000 0.0 
0.343750 0.225000 0.0 
0.375000 0.225000 0.0 
0.406250 0.225000 0.0 
0.437500 0.225000 0.0 
0.468750 0.225000 0.0 
0.500000 0.225000 0.0 
0.531250 0.225000 0.0 
0.562500 0.225000 0.0 
0.593750 0.225000 0.0 
0.625000 0.225000 0.0 
0.656250 0.225000 0.0 
0.687500 0.225000 0.0 
0.718750 0.225000 0.0 
0.750000 0.225000 0.0 
0.781250 0.225000 0.0 
0.812500 0.225000 0.0 
0.843750 0.225000 0.0 
0.875000 0.225000 0.0 
0.906250 0.225000 0.0 
0.937500 0.225000 0.0 
0.968750 0.225000 0.0 
1.000000 0.225000 0.0 
0.000000 0.337500 0.0 
0.031250 0.337500 0.0 
0.062500 0.337500 0.0 
0.093750 0.337500 0.0 
0.125000 0.337500 0.0 
0.156250 0.337500 0.0 
0.187500 0.337500 0.0 
0.218750 0.337500 0.0 
0.250000 0.337500 0.0 
0.281250 0.337500 0.0 
0.312500 0.337500 0.0 
0.343750 0.337500 0.0 
0.375000 0.337500 0.0 
0.406250 0.337500 0.0 
0.437500 0.337500 0.0 
0.468750 0.337500 0.0 
0.500000 0.337500 0.0 
0.531250 0.337500 0.0 
0.562500 0.337500 0.0 
0.593750 0.337500 0.0 
0.625000 0.337500 0.0 
0.656250 0.337500 0.0 
0.687500 0.337500 0.0 
0.718750 0.337500 0.0 
0.750000 0.337500 0.0 
0.781250 0.337500 0.0 
0.812500 0.337500 0.0 
0.843750 0.337500 0.0 
0.875000 0.337500 0.0 
0.906250 0.337500 0.0 
0.937500 0.337500 0.0 
0.968750 0.337500 0.0 
1.000000 0.337500 0.0 
0.000000 0.450000 0.0 
0.031250 0.450000 0.0 
0.062500 0.450000 0.0 
0.093750 0.450000 0.0 
0.125000 0.450000 0.0 
0.156250 0.450000 0.0 
0.187500 0.450000 0.0 
0.218750 0.450000 0.0 
0.250000 0.450000 0.0 
0.281250 0.450000 0.0 
0.312500 0.450000 0.0 
0.343750 0.450000 0.0 
0.375000 0.450000 0.0 
0.406250 0.450000 0.0 
0.437500 0.450000 0.0 
0.468750 0.450000 0.0 
0.500000 0.450000 0.0 
0.531250 0.450000 0.0 
0.562500 0.450000 0.0 
0.593750 0.450000 0.0 
0.625000 0.450000 0.0 
0.656250 0.450000 0.0 
0.687500 0.450000 0.0 
0.718750 0.450000 0.0 
0.750000 0.450000 0.0 
0.781250 0.450000 0.0 
0.812500 0.450000 0.0 
0.843750 0.450000 0.0 
0.875000 0.450000 0.0 
0.906250 0.450000 0.0 
0.937500 0.450000 0.0 
0.968750 0.450000 0.0 
1.000000 0.450000 0.0 
0.000000 0.562500 0.0 
0.031250 0.562500 0.0 
0.062500 0.562500 0.0 
0.093750 0.562500 0.0 
0.125000 0.562500 0.0 
0.156250 0.562500 0.0 
0.187500 0.562500 0.0 
0.218750 0.562500 0.0 
0.250000 0.562500 0.0 
0.281250 0.562500 0.0 
0.312500 0.562500 0.0 
0.343750 0.562500 0.0 
0.375000 0.562500 0.0 
0.406250 0.562500 0.0 
0.437500 0.562500 0.0 
0.468750 0.562500 0.0 
0.500000 0.562500 0.0 
0.531250 0.562500 0.0 
0.562500 0.562500 0.0 
0.593750 0.562500 0.0 
0.625000 0.562500 0.0 
0.656250 0.562500 0.0 
0.687500 0.562500 0.0 
0.718750 0.562500 0.0 
0.750000 0.562500 0.0 
0.781250 0.562500 0.0 
0.812500 0.562500 0.0 
0.843750 0.562500 0.0 
0.875000 0.562500 0.0 
0.906250 0.562500 0.0 
0.937500 0.562500 0.0 
0.968750 0.562500 0.0 
1.000000 0.562500 0.0 
0.000000 0.675000 0.0 
0.031250 0.675000 0.0 
0.062500 0.675000 0.0 
0.093750 0.675000 0.0 
0.125000 0.675000 0.0 
0.156250 0.675000 0.0 
0.187500 0.675000 0.0 
0.218750 0.675000 0.0 
0.250000 0.675000 0.0 
0.281250 0.675000 0.0 
0.312500 0.675000 0.0 
0.343750 0.675000 0.0 
0.375000 0.675000 0.0 
0.406250 0.675000 0.0 
0.437500 0.675000 0.0 
0.468750 0.675000 0.0 
0.500000 0.675000 0.0 
0.531250 0.675000 0.0 
0.562500 0.675000 0.0 
0.593750 0.675000 0.0 
0.625000 0.675000 0.0 
0.656250 0.675000 0.0 
0.687500 0.675000 0.0 
0.718750 0.675000 0.0 
0.750000 0.675000 0.0 
0.781250 0.675000 0.0 
0.812500 0.675000 0.0 
0.843750 0.675000 0.0 
0.875000 0.675000 0.0 
0.906250 0.675000 0.0 
0.937500 0.675000 0.0 
0.968750 0.675000 0.0 
1.000000 0.675000 0.0 
0.000000 0.787500 0.0 
0.031250 0.787500 0.0 
0.062500 0.787500 0.0 
0.093750 0.787500 0.0 
0.125000 0.787500 0.0 
0.156250 0.787500 0.0 
0.187500 0.787500 0.0 
0.218750 0.787500 0.0 
0.250000 0.787500 0.0 
0.281250 0.787500 0.0 
0.312500 0.787500 0.0 
0.343750 0.787500 0.0 
0.375000 0.787500 0.0 
0.406250 0.787500 0.0 
0.437500 0.787500 0.0 
0.468750 0.787500 0.0 
0.500000 0.787500 0.0 
0.531250 0.787500 0.0 
0.562500 0.787500 0.0 
0.593750 0.787500 0.0 
0.625000 0.787500 0.0 
0.656250 0.787500 0.0 
0.687500 0.787500 0.0 
0.718750 0.787500 0.0 
0.750000 0.787500 0.0 
0.781250 0.787500 0.0 
0.812500 0.787500 0.0 
0.843750 0.787500 0.0 
0.875000 0.787500 0.0 
0.906250 0.787500 0.0 
0.937500 0.787500 0.0 
0.968750 0.787500 0.0 
1.000000 0.787500 0.0 
0.000000 0.900000 0.0 
0.031250 0.900000 0.0 
0.062500 0.900000 0.0 
0.093750 0.900000 0.0 
0.125000 0.900000 0.0 
0.156250 0.900000 0.0 
0.187500 0.900000 0.0 
0.218750 0.900000 0.0 
0.250000 0.900000 0.0 
0.281250 0.900000 0.0 
0.312500 0.900000 0.0 
0.343750 0.900000 0.0 
0.375000 0.900000 0.0 
0.406250 0.900000 0.0 
0.437500 0.900000 0.0 
0.468750 0.900000 0.0 
0.500000 0.900000 0.0 
0.531250 0.900000 0.0 
0.562500 0.900000 0.0 
0.593750 0.900000 0.0 
0.625000 0.900000 0.0 
0.656250 0.900000 0.0 
0.687500 0.900000 0.0 
0.718750 0.900000 0.0 
0.750000 0.900000 0.0 
0.781250 0.900000 0.0 
0.812500 0.900000 0.0 
0.843750 0.900000 0.0 
0.875000 0.900000 0.0 
0.906250 0.900000 0.0 
0.937500 0.900000 0.0 
0.968750 0.900000 0.0 
1.000000 0.900000 0.0 
0.000000 0.916667 0.0 
0.031250 0.916667 0.0 
0.062500 0.916667 0.0 
0.093750 0.916667 0.0 
0.125000 0.916667 0.0 
0.156250 0.916667 0.0 
0.187500 0.916667 0.0 
0.218750 0.916667 0.0 
0.250000 0.916667 0.0 
0.281250 0.916667 0.0 
0.312500 0.916667 0.0 
0.343750 0.916667 0.0 
0.375000 0.916667 0.0 
0.406250 0.916667 0.0 
0.437500 0.916667 0.0 
0.468750 0.916667 0.0 
0.500000 0.916667 0.0 
0.531250 0.916667 0.0 
0.562500 0.916667 0.0 
0.593750 0.916667 0.0 
0.625000 0.916667 0.0 
0.656250 0.916667 0.0 
0.687500 0.916667 0.0 
0.718750 0.916667 0.0 
0.750000 0.916667 0.0 
0.781250 0.916667 0.0 
0.812500 0.916667 0.0 
0.843750 0.916667 0.0 
0.875000 0.916667 0.0 
0.906250 0.916667 0.0 
0.937500 0.916667 0.0 
0.968750 0.916667 0.0 
1.000000 0.916667 0.0 
0.000000 0.933333 0.0 
0.031250 0.933333 0.0 
0.062500 0.933333 0.0 
0.093750 0.933333 0.0 
0.125000 0.933333 0.0 
0.156250 0.933333 0.0 
0.187500 0.933333 0.0 
0.218750 0.933333 0.0 
0.250000 0.933333 0.0 
0.281250 0.933333 0.0 
0.312500 0.933333 0.0 
0.343750 0.933333 0.0 
0.375000 0.933333 0.0 
0.406250 0.933333 0.0 
0.437500 0.933333 0.0 
0.468750 0.933333 0.0 
0.500000 0.933333 0.0 
0.531250 0.933333 0.0 
0.562500 0.933333 0.0 
0.593750 0.933333 0.0 
0.625000 0.933333 0.0 
0.656250 0.933333 0.0 
0.687500 0.933333 0.0 
0.718750 0.933333 0.0 
0.750000 0.933333 0.0 
0.781250 0.933333 0.0 
0.812500 0.933333 0.0 
0.843750 0.933333 0.0 
0.875000 0.933333 0.0 
0.906250 0.933333 0.0 
0.937500 0.933333 0.0 
0.968750 0.933333 0.0 
1.000000 0.933333 0.0 
0.000000 0.950000 0.0 
0.031250 0.950000 0.0 
0.062500 0.950000 0.0 
0.093750 0.950000 0.0 
0.125000 0.950000 0.0 
0.156250 0.950000 0.0 
0.187500 0.950000 0.0 
0.218750 0.950000 0.0 
0.250000 0.950000 0.0 
0.281250 0.950000 0.0 
0.312500 0.950000 0.0 
0.343750 0.950000 0.0 
0.375000 0.950000 0.0 
0.406250 0.950000 0.0 
0.437500 0.950000 0.0 
0.468750 0.950000 0.0 
0.500000 0.950000 0.0 
0.531250 0.950000 0.0 
0.562500 0.950000 0.0 
0.593750 0.950000 0.0 
0.625000 0.950000 0.0 
0.656250 0.950000 0.0 
0.687500 0.950000 0.0 
0.718750 0.950000 0.0 
0.750000 0.950000 0.0 
0.781250 0.950000 0.0 
0.812500 0.950000 0.0 
0.843750 0.950000 0.0 
0.875000 0.950000 0.0 
0.906250 0.950000 0.0 
0.937500 0.950000 0.0 
0.968750 0.950000 0.0 
1.000000 0.950000 0.0 
0.000000 0.966667 0.0 
0.031250 0.966667 0.0 
0.062500 0.966667 0.0 
0.093750 0.966667 0.0 
0.125000 0.966667 0.0 
0.156250 0.966667 0.0 
0.187500 0.966667 0.0 
0.218750 0.966667 0.0 
0.250000 0.966667 0.0 
0.281250 0.966667 0.0 
0.312500 0.966667 0.0 
0.343750 0.966667 0.0 
0.375000 0.966667 0.0 
0.406250 0.966667 0.0 
0.437500 0.966667 0.0 
0.468750 0.966667 0.0 
0.500000 0.966667 0.0 
0.531250 0.966667 0.0 
0.562500 0.966667 0.0 
0.593750 0.966667 0.0 
0.625000 0.966667 0.0 
0.656250 0.966667 0.0 
0.687500 0.966667 0.0 
0.718750 0.966667 0.0 
0.750000 0.966667 0.0 
0.781250 0.966667 0.0 
0.812500 0.966667 0.0 
0.843750 0.966667 0.0 
0.875000 0.966667 0.0 
[...]
<PointData  Vectors="sigma"> 
<DataArray  type="Float64"  Name="sigma" NumberOfComponents="4" format="ascii"> 
-0.000064   0.985039   -0.000022   0.985071   
-0.001048   0.975291   -0.000001   0.975816   
-0.004063   0.969508   0.000006   0.971545   
-0.008853   0.967355   0.000013   0.971812   
-0.015163   0.968390   0.000018   0.976060   
-0.022672   0.972113   0.000014   0.983645   
-0.031065   0.977945   -0.000013   0.993841   
-0.040024   0.985353   -0.000039   1.005962   
-0.049193   0.993845   -0.000021   1.019332   
-0.058115   1.002918   0.000026   1.033202   
-0.066533   1.011944   0.000002   1.046797   
-0.074303   1.020391   -0.000037   1.059499   
-0.081072   1.027814   -0.000004   1.070655   
-0.086510   1.034007   0.000031   1.079864   
-0.090518   1.038686   0.000033   1.086776   
-0.092979   1.041611   0.000016   1.091076   
-0.093816   1.042596   0.000000   1.092529   
-0.092979   1.041611   -0.000016   1.091076   
-0.090518   1.038686   -0.000033   1.086776   
-0.086510   1.034007   -0.000031   1.079864   
-0.081072   1.027814   0.000004   1.070655   
-0.074303   1.020391   0.000037   1.059499   
-0.066533   1.011944   -0.000002   1.046797   
-0.058115   1.002918   -0.000026   1.033202   
-0.049193   0.993845   0.000021   1.019332   
-0.040024   0.985353   0.000039   1.005962   
-0.031065   0.977945   0.000013   0.993841   
-0.022672   0.972113   -0.000014   0.983645   
-0.015163   0.968390   -0.000018   0.976060   
-0.008853   0.967355   -0.000013   0.971812   
-0.004063   0.969508   -0.000006   0.971545   
-0.001048   0.975291   0.000001   0.975816   
-0.000064   0.985039   0.000022   0.985071   
-0.000025   0.971085   0.000022   0.971098   
-0.001167   0.962221   0.007739   0.962899   
-0.004560   0.957806   0.014790   0.960436   
-0.009910   0.957388   0.020928   0.963064   
-0.016898   0.960426   0.025985   0.970031   
-0.025175   0.966330   0.029848   0.980524   
-0.034405   0.974468   0.032443   0.993708   
-0.044250   0.984204   0.033736   1.008752   
-0.054277   0.994922   0.033750   1.024809   
-0.063986   1.006043   0.032556   1.041042   
-0.073118   1.016965   0.030223   1.056722   
-0.081561   1.027115   0.026870   1.071240   
-0.088917   1.036056   0.022628   1.083964   
-0.094806   1.043444   0.017632   1.094358   
-0.099106   1.048957   0.012068   1.102056   
-0.101741   1.052360   0.006129   1.106794   
-0.102633   1.053508   0.000000   1.108394   
-0.101741   1.052360   -0.006129   1.106794   
-0.099106   1.048957   -0.012068   1.102056   
-0.094806   1.043444   -0.017632   1.094358   
-0.088917   1.036056   -0.022628   1.083964   
-0.081561   1.027115   -0.026870   1.071240   
-0.073118   1.016965   -0.030223   1.056722   
-0.063986   1.006043   -0.032556   1.041042   
-0.054277   0.994922   -0.033750   1.024809   
-0.044250   0.984204   -0.033736   1.008752   
-0.034405   0.974468   -0.032443   0.993708   
-0.025175   0.966330   -0.029848   0.980524   
-0.016898   0.960426   -0.025985   0.970031   
-0.009910   0.957388   -0.020928   0.963064   
-0.004560   0.957806   -0.014790   0.960436   
-0.001167   0.962221   -0.007739   0.962899   
-0.000025   0.971085   -0.000022   0.971098   
0.000104   0.925199   -0.000006   0.925147   
-0.001554   0.919800   0.017353   0.921068   
-0.006051   0.920239   0.032929   0.925040   
-0.013037   0.925716   0.046323   0.935749   
-0.022057   0.935396   0.057222   0.951792   
-0.032639   0.948404   0.065424   0.971767   
-0.044247   0.963867   0.070838   0.994334   
-0.056367   0.980888   0.073460   1.018233   
-0.068639   0.998605   0.073325   1.042399   
-0.080805   1.016239   0.070549   1.065983   
-0.092312   1.033125   0.065383   1.088147   
-0.102507   1.048617   0.058040   1.108017   
-0.111214   1.062179   0.048779   1.125105   
-0.118395   1.073256   0.037982   1.138987   
-0.123759   1.081439   0.026003   1.149214   
-0.127057   1.086445   0.013209   1.155452   
-0.128160   1.088135   0.000000   1.157548   
-0.127057   1.086445   -0.013209   1.155452   
-0.123759   1.081439   -0.026003   1.149214   
-0.118395   1.073256   -0.037982   1.138987   
-0.111214   1.062179   -0.048779   1.125105   
-0.102507   1.048617   -0.058040   1.108017   
-0.092312   1.033125   -0.065383   1.088147   
-0.080805   1.016239   -0.070549   1.065983   
-0.068639   0.998605   -0.073325   1.042399   
-0.056367   0.980888   -0.073460   1.018233   
-0.044247   0.963867   -0.070838   0.994334   
-0.032639   0.948404   -0.065424   0.971767   
-0.022057   0.935396   -0.057222   0.951792   
-0.013037   0.925716   -0.046323   0.935749   
-0.006051   0.920239   -0.032929   0.925040   
-0.001554   0.919800   -0.017353   0.921068   
0.000104   0.925199   0.000006   0.925147   
-0.000082   0.836336   0.000093   0.836377   
-0.002217   0.839305   0.030609   0.842086   
-0.008338   0.850198   0.057464   0.860176   
-0.017700   0.867596   0.080111   0.887494   
-0.029616   0.890108   0.098222   0.921126   
-0.043436   0.916417   0.111622   0.958588   
-0.058613   0.945271   0.120235   0.997872   
-0.074566   0.975556   0.124117   1.037413   
-0.090539   1.006150   0.123484   1.075814   
-0.105752   1.035890   0.118592   1.111751   
-0.119952   1.063733   0.109633   1.144365   
-0.133105   1.088909   0.097099   1.173313   
-0.144626   1.110489   0.081571   1.197776   
-0.153792   1.127882   0.063483   1.217095   
-0.160404   1.140657   0.043417   1.231036   
-0.164407   1.148497   0.022035   1.239497   
-0.165762   1.151132   0.000000   1.242335   
-0.164407   1.148497   -0.022035   1.239497   
-0.160404   1.140657   -0.043417   1.231036   
-0.153792   1.127882   -0.063483   1.217095   
-0.144626   1.110489   -0.081571   1.197776   
-0.133105   1.088909   -0.097099   1.173313   
-0.119952   1.063733   -0.109633   1.144365   
-0.105752   1.035890   -0.118592   1.111751   
-0.090539   1.006150   -0.123484   1.075814   
-0.074566   0.975556   -0.124117   1.037413   
-0.058613   0.945271   -0.120235   0.997872   
-0.043436   0.916417   -0.111622   0.958588   
-0.029616   0.890108   -0.098222   0.921126   
-0.017700   0.867596   -0.080111   0.887494   
-0.008338   0.850198   -0.057464   0.860176   
-0.002217   0.839305   -0.030609   0.842086   
-0.000082   0.836336   -0.000093   0.836377   
0.000135   0.686790   -0.000059   0.686723   
-0.002877   0.707550   0.048333   0.713918   
-0.010704   0.738130   0.089710   0.759602   
-0.022457   0.776385   0.123896   0.816556   
-0.037237   0.820422   0.150800   0.879347   
-0.054257   0.868448   0.170432   0.944143   
-0.072679   0.918760   0.182920   1.008244   
-0.091848   0.969615   0.188406   1.069644   
-0.111391   1.019580   0.187005   1.127136   
-0.130915   1.067550   0.179095   1.180163   
-0.149356   1.112206   0.165486   1.227836   
-0.165513   1.151906   0.146604   1.268628   
-0.179070   1.186013   0.122923   1.302461   
-0.190214   1.213698   0.095496   1.329461   
-0.198604   1.234082   0.065275   1.349177   
-0.203816   1.246487   0.033133   1.361109   
-0.205562   1.250662   0.000000   1.365101   
-0.203816   1.246487   -0.033133   1.361109   
-0.198604   1.234082   -0.065275   1.349177   
-0.190214   1.213698   -0.095496   1.329461   
-0.179070   1.186013   -0.122923   1.302461   
-0.165513   1.151906   -0.146604   1.268628   
-0.149356   1.112206   -0.165486   1.227836   
-0.130915   1.067550   -0.179095   1.180163   
-0.111391   1.019580   -0.187005   1.127136   
-0.091848   0.969615   -0.188406   1.069644   
-0.072679   0.918760   -0.182920   1.008244   
-0.054257   0.868448   -0.170432   0.944143   
-0.037237   0.820422   -0.150800   0.879347   
-0.022457   0.776385   -0.123896   0.816556   
-0.010704   0.738130   -0.089710   0.759602   
-0.002877   0.707550   -0.048333   0.713918   
0.000135   0.686790   0.000059   0.686723   
-0.000247   0.460020   0.000314   0.460144   
-0.002943   0.513424   0.068852   0.528531   
-0.010358   0.576260   0.126185   0.621225   
-0.021543   0.645940   0.173073   0.722137   
-0.036016   0.720554   0.210131   0.823961   
-0.053424   0.798634   0.237635   0.923443   
-0.073450   0.878826   0.255542   1.018914   
-0.095265   0.959797   0.263849   1.109310   
-0.117553   1.039345   0.262837   1.193099   
-0.139125   1.114581   0.252650   1.268151   
-0.159552   1.183592   0.233186   1.333535   
-0.178582   1.245670   0.205804   1.390362   
-0.195379   1.298161   0.172331   1.437401   
-0.208578   1.339415   0.133708   1.473276   
-0.217775   1.368985   0.091165   1.498202   
-0.223116   1.386875   0.046156   1.512954   
-0.224895   1.392842   0.000000   1.517838   
-0.223116   1.386875   -0.046156   1.512954   
-0.217775   1.368985   -0.091165   1.498202   
-0.208578   1.339415   -0.133708   1.473276   
-0.195379   1.298161   -0.172331   1.437401   
-0.178582   1.245670   -0.205804   1.390362   
-0.159552   1.183592   -0.233186   1.333535   
-0.139125   1.114581   -0.252650   1.268151   
-0.117553   1.039345   -0.262837   1.193099   
-0.095265   0.959797   -0.263849   1.109310   
-0.073450   0.878826   -0.255542   1.018914   
-0.053424   0.798634   -0.237635   0.923443   
-0.036016   0.720554   -0.210131   0.823961   
-0.021543   0.645940   -0.173073   0.722137   
-0.010358   0.576260   -0.126185   0.621225   
-0.002943   0.513424   -0.068852   0.528531   
-0.000247   0.460020   -0.000314   0.460144   
-0.000702   0.155226   -0.000509   0.155580   
-0.000469   0.261999   0.080801   0.297242   
-0.000470   0.368227   0.148328   0.449185   
-0.001877   0.475259   0.205920   0.594959   
-0.006249   0.585158   0.255182   0.735839   
-0.015144   0.699282   0.295871   0.873174   
-0.029432   0.817498   0.326494   1.006492   
-0.049473   0.937660   0.344643   1.133305   
-0.074289   1.057533   0.347870   1.251199   
-0.101011   1.174653   0.335553   1.358843   
-0.125968   1.283242   0.309631   1.453217   
-0.146378   1.375460   0.271593   1.528380   
-0.160381   1.450883   0.223578   1.585383   
-0.168881   1.509743   0.169852   1.627685   
-0.173488   1.551479   0.113737   1.656852   
-0.175678   1.575890   0.056922   1.673578   
-0.176252   1.583928   0.000000   1.679007   
-0.175678   1.575890   -0.056922   1.673578   
-0.173488   1.551479   -0.113737   1.656852   
-0.168881   1.509743   -0.169852   1.627685   
-0.160381   1.450883   -0.223578   1.585383   
-0.146378   1.375460   -0.271593   1.528380   
-0.125968   1.283242   -0.309631   1.453217   
-0.101011   1.174653   -0.335553   1.358843   
-0.074289   1.057533   -0.347870   1.251199   
-0.049473   0.937660   -0.344643   1.133305   
-0.029432   0.817498   -0.326494   1.006492   
-0.015144   0.699282   -0.295871   0.873174   
-0.006249   0.585158   -0.255182   0.735839   
-0.001877   0.475259   -0.205920   0.594959   
-0.000470   0.368227   -0.148328   0.449185   
-0.000469   0.261999   -0.080801   0.297242   
-0.000702   0.155226   0.000509   0.155580   
-0.000031   -0.128724   -0.000956   0.128719   
0.009016   0.022100   0.052930   0.093677   
0.030083   0.146853   0.107253   0.229266   
0.056546   0.260817   0.166992   0.374344   
0.081761   0.377554   0.233454   0.530910   
0.099561   0.509635   0.304307   0.704775   
0.104018   0.667184   0.372861   0.896455   
0.091575   0.854466   0.427975   1.099881   
0.062529   1.060583   0.455889   1.298435   
0.024191   1.261946   0.445703   1.469190   
-0.009321   1.439664   0.396266   1.599130   
-0.023640   1.587539   0.319483   1.692506   
-0.018297   1.689301   0.234276   1.746321   
-0.000214   1.743733   0.156178   1.764697   
0.020719   1.765209   0.092440   1.762229   
0.036698   1.771284   0.042291   1.754752   
0.042490   1.772066   0.000000   1.751208   
0.036698   1.771284   -0.042291   1.754752   
0.020719   1.765209   -0.092440   1.762229   
-0.000214   1.743733   -0.156178   1.764697   
-0.018297   1.689301   -0.234276   1.746321   
-0.023640   1.587539   -0.319483   1.692506   
-0.009321   1.439664   -0.396266   1.599130   
0.024191   1.261946   -0.445703   1.469190   
0.062529   1.060583   -0.455889   1.298435   
0.091575   0.854466   -0.427975   1.099881   
0.104018   0.667184   -0.372861   0.896455   
0.099561   0.509635   -0.304307   0.704775   
0.081761   0.377554   -0.233454   0.530910   
0.056546   0.260817   -0.166992   0.374344   
0.030083   0.146853   -0.107253   0.229266   
0.009016   0.022100   -0.052930   0.093677   
-0.000031   -0.128724   0.000956   0.128719   
-0.001094   -0.157878   -0.001832   0.157366   
0.010800   -0.062155   -0.031240   0.087057   
0.038293   0.000969   -0.026436   0.059386   
0.080014   0.050421   0.004352   0.070476   
0.137514   0.100694   0.061330   0.162747   
0.210166   0.168956   0.150716   0.324581   
0.294793   0.287707   0.279784   0.565421   
0.369189   0.504866   0.451817   0.903999   
0.382499   0.889617   0.625477   1.330831   
0.289228   1.421170   0.679036   1.753740   
0.202233   1.917758   0.500876   2.020764   
0.244491   2.120651   0.214886   2.043767   
0.378527   2.092992   0.019149   1.932031   
0.489837   1.978186   -0.057612   1.787213   
0.557949   1.879522   -0.062244   1.675368   
0.590121   1.816555   -0.036723   1.606291   
0.600418   1.797009   -0.000000   1.584546   
0.590121   1.816555   0.036723   1.606291   
0.557949   1.879522   0.062244   1.675368   
0.489837   1.978186   0.057612   1.787213   
0.378527   2.092992   -0.019149   1.932031   
0.244491   2.120651   -0.214886   2.043767   
0.202233   1.917758   -0.500876   2.020764   
0.289228   1.421170   -0.679036   1.753740   
0.382499   0.889617   -0.625477   1.330831   
0.369189   0.504866   -0.451817   0.903999   
0.294793   0.287707   -0.279784   0.565421   
0.210166   0.168956   -0.150716   0.324581   
0.137514   0.100694   -0.061330   0.162747   
0.080014   0.050421   -0.004352   0.070476   
0.038293   0.000969   0.026436   0.059386   
0.010800   -0.062155   0.031240   0.087057   
-0.001094   -0.157878   0.001832   0.157366   
-0.000271   -0.122608   -0.000239   0.122473   
0.006466   -0.054793   -0.039664   0.090101   
0.026920   -0.006181   -0.042339   0.079416   
0.061612   0.031198   -0.019793   0.063423   
0.115678   0.067294   0.026938   0.110916   
0.192439   0.116646   0.105950   0.248732   
0.295024   0.209398   0.227150   0.473182   
0.401283   0.395863   0.412658   0.818378   
0.447817   0.788478   0.638581   1.300961   
0.351831   1.440727   0.751141   1.839899   
0.261675   2.106156   0.517892   2.181255   
0.322528   2.264612   0.140074   2.135639   
0.496818   2.152053   -0.055941   1.954065   
0.615556   1.984730   -0.104582   1.768944   
0.678060   1.865343   -0.084281   1.641878   
0.701797   1.796601   -0.045567   1.570246   
0.708824   1.774803   -0.000000   1.547364   
0.701797   1.796601   0.045567   1.570246   
0.678060   1.865343   0.084281   1.641878   
0.615556   1.984730   0.104582   1.768944   
0.496818   2.152053   0.055941   1.954065   
0.322528   2.264612   -0.140074   2.135639   
0.261675   2.106156   -0.517892   2.181255   
0.351831   1.440727   -0.751141   1.839899   
0.447817   0.788478   -0.638581   1.300961   
0.401283   0.395863   -0.412658   0.818378   
0.295024   0.209398   -0.227150   0.473182   
0.192439   0.116646   -0.105950   0.248732   
0.115678   0.067294   -0.026938   0.110916   
0.061612   0.031198   0.019793   0.063423   
0.026920   -0.006181   0.042339   0.079416   
0.006466   -0.054793   0.039664   0.090101   
-0.000271   -0.122608   0.000239   0.122473   
0.000175   -0.085169   -0.000190   0.085257   
0.002071   -0.043499   -0.042197   0.085605   
0.011432   -0.007979   -0.051216   0.090303   
0.033488   0.018535   -0.037364   0.070940   
0.076470   0.043459   -0.003040   0.066639   
0.144621   0.072420   0.059037   0.161686   
0.253712   0.136451   0.161489   0.355817   
0.396993   0.271342   0.339475   0.685011   
0.532507   0.653844   0.624786   1.238536   
0.438455   1.441345   0.831974   1.927251   
0.335929   2.376530   0.523439   2.405070   
0.446166   2.438984   0.034414   2.250127   
0.677063   2.199837   -0.136766   1.965803   
0.760687   1.968186   -0.139637   1.736008   
0.799563   1.841723   -0.095849   1.608177   
0.803251   1.768281   -0.048019   1.535765   
0.807216   1.750284   -0.000000   1.517311   
0.803251   1.768281   0.048019   1.535765   
0.799563   1.841723   0.095849   1.608177   
0.760687   1.968186   0.139637   1.736008   
0.677063   2.199837   0.136766   1.965803   
0.446166   2.438984   -0.034414   2.250127   
0.335929   2.376530   -0.523439   2.405070   
0.438455   1.441345   -0.831974   1.927251   
0.532507   0.653844   -0.624786   1.238536   
0.396993   0.271342   -0.339475   0.685011   
0.253712   0.136451   -0.161489   0.355817   
0.144621   0.072420   -0.059037   0.161686   
0.076470   0.043459   0.003040   0.066639   
0.033488   0.018535   0.037364   0.070940   
0.011432   -0.007979   0.051216   0.090303   
0.002071   -0.043499   0.042197   0.085605   
0.000175   -0.085169   0.000190   0.085257   
0.000546   -0.049848   -0.000527   0.050131   
-0.005454   -0.030937   -0.042462   0.078913   
-0.010298   -0.008408   -0.056445   0.098226   
-0.005749   0.006568   -0.050234   0.087660   
0.016453   0.021167   -0.028299   0.052660   
0.068577   0.033890   0.015623   0.065265   
0.167672   0.071246   0.092939   0.217156   
0.334050   0.153234   0.242354   0.509988   
0.588713   0.438789   0.558389   1.102811   
0.537466   1.388781   0.954164   2.049987   
0.482590   2.770426   0.530656   2.723226   
0.625526   2.569596   -0.137228   2.333078   
0.903966   2.205742   -0.198970   1.951231   
0.916423   1.948769   -0.161611   1.711721   
0.917800   1.812440   -0.096130   1.578468   
0.899040   1.745990   -0.047333   1.514517   
0.894225   1.723150   -0.000000   1.492649   
0.899040   1.745990   0.047333   1.514517   
0.917800   1.812440   0.096130   1.578468   
0.916423   1.948769   0.161611   1.711721   
0.903966   2.205742   0.198970   1.951231   
0.625526   2.569596   0.137228   2.333078   
0.482590   2.770426   -0.530656   2.723226   
0.537466   1.388781   -0.954164   2.049987   
0.588713   0.438789   -0.558389   1.102811   
0.334050   0.153234   -0.242354   0.509988   
0.167672   0.071246   -0.092939   0.217156   
0.068577   0.033890   -0.015623   0.065265   
0.016453   0.021167   0.028299   0.052660   
-0.005749   0.006568   0.050234   0.087660   
-0.010298   -0.008408   0.056445   0.098226   
-0.005454   -0.030937   0.042462   0.078913   
0.000546   -0.049848   0.000527   0.050131   
0.001225   -0.016996   -0.000672   0.017679   
-0.012965   -0.017361   -0.034702   0.062106   
-0.035691   -0.005400   -0.049863   0.092571   
-0.051868   0.002297   -0.050499   0.102299   
-0.060221   0.006843   -0.036869   0.090352   
-0.039026   0.016309   -0.017667   0.057981   
0.034266   0.015846   0.033863   0.065746   
0.161576   0.087643   0.118014   0.247808   
0.614594   0.258331   0.384661   0.854158   
0.644556   1.191781   0.992229   2.005288   
0.809787   3.430458   0.457192   3.205142   
0.958988   2.704604   -0.282380   2.424886   
1.204753   2.205641   -0.213599   1.948307   
1.049122   1.908733   -0.141201   1.673690   
1.023923   1.782805   -0.079219   1.555694   
0.970764   1.723473   -0.036336   1.497871   
0.965267   1.699381   -0.000000   1.476238   
0.970764   1.723473   0.036336   1.497871   
1.023923   1.782805   0.079219   1.555694   
1.049122   1.908733   0.141201   1.673690   
1.204753   2.205641   0.213599   1.948307   
0.958988   2.704604   0.282380   2.424886   
0.809787   3.430458   -0.457192   3.205142   
0.644556   1.191781   -0.992229   2.005288   
0.614594   0.258331   -0.384661   0.854158   
0.161576   0.087643   -0.118014   0.247808   
0.034266   0.015846   -0.033863   0.065746   
-0.039026   0.016309   0.017667   0.057981   
-0.060221   0.006843   0.036869   0.090352   
-0.051868   0.002297   0.050499   0.102299   
-0.035691   -0.005400   0.049863   0.092571   
-0.012965   -0.017361   0.034702   0.062106   
0.001225   -0.016996   0.000672   0.017679   
0.002968   -0.002647   0.000246   0.004884   