<VTKFile type="UnstructuredGrid"  version="0.1"   > 
<UnstructuredGrid> 
<Piece  NumberOfPoints="  85" NumberOfCells=" 64"> 
<Points> 
<DataArray  type="Float64"  NumberOfComponents="3"  format="ascii" > 
0.000000 -3.000000 0.0 
1.500000 -3.000000 0.0 
3.000000 -3.000000 0.0 
4.500000 -3.000000 0.0 
6.000000 -3.000000 0.0 
7.500000 -3.000000 0.0 
9.000000 -3.000000 0.0 
10.500000 -3.000000 0.0 
12.000000 -3.000000 0.0 
13.500000 -3.000000 0.0 
15.000000 -3.000000 0.0 
16.500000 -3.000000 0.0 
18.000000 -3.000000 0.0 
19.500000 -3.000000 0.0 
21.000000 -3.000000 0.0 
22.500000 -3.000000 0.0 
24.000000 -3.000000 0.0 
0.000000 -1.500000 0.0 
1.500000 -1.500000 0.0 
3.000000 -1.500000 0.0 
4.500000 -1.500000 0.0 
6.000000 -1.500000 0.0 
7.500000 -1.500000 0.0 
9.000000 -1.500000 0.0 
10.500000 -1.500000 0.0 
12.000000 -1.500000 0.0 
13.500000 -1.500000 0.0 
15.000000 -1.500000 0.0 
16.500000 -1.500000 0.0 
18.000000 -1.500000 0.0 
19.500000 -1.500000 0.0 
21.000000 -1.500000 0.0 
22.500000 -1.500000 0.0 
24.000000 -1.500000 0.0 
0.000000 0.000000 0.0 
1.500000 0.000000 0.0 
3.000000 0.000000 0.0 
4.500000 0.000000 0.0 
6.000000 0.000000 0.0 
7.500000 0.000000 0.0 
9.000000 0.000000 0.0 
10.500000 0.000000 0.0 
12.000000 0.000000 0.0 
13.500000 0.000000 0.0 
15.000000 0.000000 0.0 
16.500000 0.000000 0.0 
18.000000 0.000000 0.0 
19.500000 0.000000 0.0 
21.000000 0.000000 0.0 
22.500000 0.000000 0.0 
24.000000 0.000000 0.0 
0.000000 1.500000 0.0 
1.500000 1.500000 0.0 
3.000000 1.500000 0.0 
4.500000 1.500000 0.0 
6.000000 1.500000 0.0 
7.500000 1.500000 0.0 
9.000000 1.500000 0.0 
10.500000 1.500000 0.0 
12.000000 1.500000 0.0 
13.500000 1.500000 0.0 
15.000000 1.500000 0.0 
16.500000 1.500000 0.0 
18.000000 1.500000 0.0 
19.500000 1.500000 0.0 
21.000000 1.500000 0.0 
22.500000 1.500000 0.0 
24.000000 1.500000 0.0 
0.000000 3.000000 0.0 
1.500000 3.000000 0.0 
3.000000 3.000000 0.0 
4.500000 3.000000 0.0 
6.000000 3.000000 0.0 
7.500000 3.000000 0.0 
9.000000 3.000000 0.0 
10.500000 3.000000 0.0 
12.000000 3.000000 0.0 
13.500000 3.000000 0.0 
15.000000 3.000000 0.0 
16.500000 3.000000 0.0 
18.000000 3.000000 0.0 
19.500000 3.000000 0.0 
21.000000 3.000000 0.0 
22.500000 3.000000 0.0 
24.000000 3.000000 0.0 
</DataArray> 
</Points> 
<Cells> 
<DataArray  type="Int32"  Name="connectivity"  format="ascii"> 
0 1 18 17 
1 2 19 18 
2 3 20 19 
3 4 21 20 
4 5 22 21 
5 6 23 22 
6 7 24 23 
7 8 25 24 
8 9 26 25 
9 10 27 26 
10 11 28 27 
11 12 29 28 
12 13 30 29 
13 14 31 30 
14 15 32 31 
15 16 33 32 
17 18 35 34 
18 19 36 35 
19 20 37 36 
20 21 38 37 
21 22 39 38 
22 23 40 39 
23 24 41 40 
24 25 42 41 
25 26 43 42 
26 27 44 43 
27 28 45 44 
28 29 46 45 
29 30 47 46 
30 31 48 47 
31 32 49 48 
32 33 50 49 
34 35 52 51 
35 36 53 52 
36 37 54 53 
37 38 55 54 
38 39 56 55 
39 40 57 56 
40 41 58 57 
41 42 59 58 
42 43 60 59 
43 44 61 60 
44 45 62 61 
45 46 63 62 
46 47 64 63 
47 48 65 64 
48 49 66 65 
49 50 67 66 
51 52 69 68 
52 53 70 69 
53 54 71 70 
54 55 72 71 
55 56 73 72 
56 57 74 73 
57 58 75 74 
58 59 76 75 
59 60 77 76 
60 61 78 77 
61 62 79 78 
62 63 80 79 
63 64 81 80 
64 65 82 81 
65 66 83 82 
66 67 84 83 
</DataArray> 
<DataArray  type="Int32"  Name="offsets"  format="ascii"> 
4 
8 
12 
16 
20 
24 
28 
32 
36 
40 
44 
48 
52 
56 
60 
64 
68 
72 
76 
80 
84 
88 
92 
96 
100 
104 
108 
112 
116 
120 
124 
128 
132 
136 
140 
144 
148 
152 
156 
160 
164 
168 
172 
176 
180 
184 
188 
192 
196 
200 
204 
208 
212 
216 
220 
224 
228 
232 
236 
240 
244 
248 
252 
256 
</DataArray> 
<DataArray  type="UInt8"  Name="types"  format="ascii"> 
9 
9 
9 
9 
9 
9 
9 
9 
9 
9 
9 
9 
9 
9 
9 
9 
9 
9 
9 
9 
9 
9 
9 
9 
9 
9 
9 
9 
9 
9 
9 
9 
9 
9 
9 
9 
9 
9 
9 
9 
9 
9 
9 
9 
9 
9 
9 
9 
9 
9 
9 
9 
9 
9 
9 
9 
9 
9 
9 
9 
9 
9 
9 
9 
</DataArray> 
</Cells> 
<PointData  Vectors="sigma"> 
<DataArray  type="Float64"  Name="sigma" NumberOfComponents="3" format="ascii"> 
-7996.545075   21.532992   1.876594   
-7749.203605   0.818706   -0.015370   
-7501.128509   -0.624411   0.353280   
-7249.825666   0.365895   -0.205697   
-7000.125326   -0.147040   0.120785   
-6749.961094   0.009235   -0.084514   
-6499.884158   0.129680   0.087483   
-6250.173038   -0.325841   -0.118684   
-5999.585629   0.669680   0.173441   
-5750.630655   -1.317747   -0.238193   
-5498.915778   2.569085   0.270806   
-5251.635554   -4.996473   -0.146196   
-4997.845387   9.428033   -0.249676   
-4750.198581   -19.220431   1.964665   
-4479.123503   24.546357   -2.301158   
-4037.067806   14.338581   -55.047187   
-4552.001144   -1336.402527   780.374998   
-3937.374386   0.521420   -183.575347   
-3874.693075   0.412413   -185.636011   
-3749.676193   0.126958   -187.630523   
-3624.894134   -0.043579   -187.555071   
-3499.957168   -0.025986   -187.531657   
-3374.970227   -0.010518   -187.509631   
-3249.967046   -0.000280   -187.504839   
-3124.976379   -0.007394   -187.497173   
-2999.957094   0.014353   -187.505271   
-2874.988042   -0.033359   -187.490054   
-2749.927653   0.074741   -187.516617   
-2625.060276   0.008815   -187.516249   
-2500.740757   1.237069   -187.887852   
-2381.375735   4.208334   -189.183027   
-2277.560503   -0.750563   -187.767554   
-2150.723694   -154.852698   -211.243596   
-2070.415914   -302.509977   -236.997649   
-1.089948   2.778964   -253.939376   
-0.424522   1.548187   -251.805810   
0.191341   0.159978   -249.795965   
0.116914   -0.014293   -249.948650   
0.069256   -0.026512   -249.987237   
0.041295   -0.015096   -250.000276   
0.033064   -0.005354   -249.997873   
0.030111   -0.001419   -250.003787   
0.030081   -0.000172   -249.994050   
0.030095   0.000070   -250.013698   
0.030264   0.000032   -249.980429   
0.030341   -0.000043   -249.920721   
0.030489   -0.000113   -248.857367   
0.030697   0.000004   -243.824911   
0.030764   0.000973   -235.349701   
0.029938   0.003789   -297.062367   
0.029163   0.005771   -363.295821   
3938.830886   -1.872006   -185.989744   
3875.444112   -0.925555   -186.849724   
3749.760436   0.044075   -187.584464   
3624.988778   0.032624   -187.464356   
3500.023356   -0.005932   -187.477714   
3375.032277   -0.005830   -187.488814   
3250.026324   -0.005489   -187.498964   
3125.036656   0.005827   -187.496319   
3000.017412   -0.014439   -187.505437   
2875.048606   0.033405   -187.490286   
2749.988240   -0.074685   -187.516749   
2625.120889   -0.008867   -187.516393   
2500.801411   -1.237207   -187.888119   
2381.436550   -4.208354   -189.183409   
2277.621563   0.751707   -187.767293   
2150.783921   154.859004   -211.241167   
2070.475207   302.520452   -236.993711   
7749.674322   -0.473256   -0.213676   
7750.040585   -5.319592   0.457867   
7499.708497   -0.377364   -0.185918   
7250.219553   0.281336   0.184513   
6999.886861   -0.136635   -0.117848   
6750.006863   -0.011764   0.092710   
6500.134859   0.168558   -0.097951   
6249.793134   -0.403872   0.129276   
6000.465172   0.823591   -0.178432   
5749.311736   -1.620165   0.222349   
5501.193838   3.157440   -0.192418   
5248.441147   -5.998745   0.010719   
5000.976974   12.108673   0.909169   
4738.543402   -16.987470   -1.275475   
4393.690064   2.440569   -26.541700   
4515.638514   655.941863   389.047961   
4037.122180   -14.339596   -55.048077   
</DataArray> 
<DataArray  type="Float64"  Name="U" NumberOfComponents="3" format="ascii"> 
 -0.00000002    -0.00012010    -0.00012010   
 -0.00039375    -0.00023817    -0.00023817   
 -0.00077505    -0.00055000    -0.00055000   
 -0.00114380    -0.00104941    -0.00104941   
 -0.00150006    -0.00173005    -0.00173005   
 -0.00184381    -0.00258570    -0.00258570   
 -0.00217506    -0.00361009    -0.00361009   
 -0.00249380    -0.00479699    -0.00479699   
 -0.00280006    -0.00614014    -0.00614014   
 -0.00309379    -0.00763328    -0.00763328   
 -0.00337507    -0.00927019    -0.00927019   
 -0.00364378    -0.01104457    -0.01104457   
 -0.00390008    -0.01295025    -0.01295025   
 -0.00414373    -0.01498092    -0.01498092   
 -0.00437450    -0.01713057    -0.01713057   
 -0.00458926    -0.01939076    -0.01939076   
 -0.00478788    -0.02171474    -0.02171474   
  0.00000711    -0.00003036    -0.00003036   
 -0.00018976    -0.00015096    -0.00015096   
 -0.00038036    -0.00046563    -0.00046563   
 -0.00056473    -0.00096784    -0.00096784   
 -0.00074285    -0.00165130    -0.00165130   
 -0.00091472    -0.00250976    -0.00250976   
 -0.00108035    -0.00353697    -0.00353697   
 -0.00123972    -0.00472668    -0.00472668   
 -0.00139285    -0.00607264    -0.00607264   
 -0.00153972    -0.00756859    -0.00756859   
 -0.00168034    -0.00920832    -0.00920832   
 -0.00181472    -0.01098549    -0.01098549   
 -0.00194283    -0.01289400    -0.01289400   
 -0.00206483    -0.01492741    -0.01492741   
 -0.00218094    -0.01707963    -0.01707963   
 -0.00229244    -0.01934314    -0.01934314   
 -0.00239403    -0.02171438    -0.02171438   
  0.00000002     0.00000037     0.00000037   
 -0.00000004    -0.00012187    -0.00012187   
 -0.00000003    -0.00043752    -0.00043752   
 -0.00000002    -0.00094066    -0.00094066   
 -0.00000002    -0.00162505    -0.00162505   
 -0.00000002    -0.00248445    -0.00248445   
 -0.00000002    -0.00351259    -0.00351259   
 -0.00000001    -0.00470324    -0.00470324   
 -0.00000001    -0.00605013    -0.00605013   
 -0.00000001    -0.00754704    -0.00754704   
 -0.00000001    -0.00918767    -0.00918767   
 -0.00000001    -0.01096584    -0.01096584   
 -0.00000001    -0.01287517    -0.01287517   
 -0.00000000    -0.01490951    -0.01490951   
 -0.00000000    -0.01706202    -0.01706202   
 -0.00000000    -0.01932780    -0.01932780   
 -0.00000000    -0.02171431    -0.02171431   
 -0.00000720    -0.00003005    -0.00003005   
  0.00018971    -0.00015091    -0.00015091   
  0.00038032    -0.00046563    -0.00046563   
  0.00056469    -0.00096785    -0.00096785   
  0.00074282    -0.00165130    -0.00165130   
  0.00091469    -0.00250976    -0.00250976   
  0.00108032    -0.00353697    -0.00353697   
  0.00123970    -0.00472668    -0.00472668   
  0.00139282    -0.00607264    -0.00607264   
  0.00153970    -0.00756859    -0.00756859   
  0.00168032    -0.00920832    -0.00920832   
  0.00181471    -0.01098549    -0.01098549   
  0.00194282    -0.01289401    -0.01289401   
  0.00206482    -0.01492742    -0.01492742   
  0.00218093    -0.01707963    -0.01707963   
  0.00229243    -0.01934314    -0.01934314   
  0.00239403    -0.02171438    -0.02171438   
 -0.00000001    -0.00012003    -0.00012003   
  0.00039376    -0.00023811    -0.00023811   
  0.00077503    -0.00055000    -0.00055000   
  0.00114377    -0.00104941    -0.00104941   
  0.00150003    -0.00173005    -0.00173005   
  0.00184377    -0.00258570    -0.00258570   
  0.00217503    -0.00361010    -0.00361010   
  0.00249378    -0.00479699    -0.00479699   
  0.00280004    -0.00614014    -0.00614014   
  0.00309377    -0.00763328    -0.00763328   
  0.00337505    -0.00927019    -0.00927019   
  0.00364376    -0.01104457    -0.01104457   
  0.00390007    -0.01295025    -0.01295025   
  0.00414372    -0.01498092    -0.01498092   
  0.00437449    -0.01713057    -0.01713057   
  0.00458926    -0.01939076    -0.01939076   
  0.00478788    -0.02171474    -0.02171474   
</DataArray> 
</PointData> 
</Piece> 
</UnstructuredGrid> 
</VTKFile> 
