<VTKFile type="UnstructuredGrid"  version="0.1"   > 
<UnstructuredGrid> 
<Piece  NumberOfPoints="  1105" NumberOfCells=" 1024"> 
<Points> 
<DataArray  type="Float64"  NumberOfComponents="3"  format="ascii" > 
0.000000 -3.000000 0.0 
0.375000 -3.000000 0.0 
0.750000 -3.000000 0.0 
1.125000 -3.000000 0.0 
1.500000 -3.000000 0.0 
1.875000 -3.000000 0.0 
2.250000 -3.000000 0.0 
2.625000 -3.000000 0.0 
3.000000 -3.000000 0.0 
3.375000 -3.000000 0.0 
3.750000 -3.000000 0.0 
4.125000 -3.000000 0.0 
4.500000 -3.000000 0.0 
4.875000 -3.000000 0.0 
5.250000 -3.000000 0.0 
5.625000 -3.000000 0.0 
6.000000 -3.000000 0.0 
6.375000 -3.000000 0.0 
6.750000 -3.000000 0.0 
7.125000 -3.000000 0.0 
7.500000 -3.000000 0.0 
7.875000 -3.000000 0.0 
8.250000 -3.000000 0.0 
8.625000 -3.000000 0.0 
9.000000 -3.000000 0.0 
9.375000 -3.000000 0.0 
9.750000 -3.000000 0.0 
10.125000 -3.000000 0.0 
10.500000 -3.000000 0.0 
10.875000 -3.000000 0.0 
11.250000 -3.000000 0.0 
11.625000 -3.000000 0.0 
12.000000 -3.000000 0.0 
12.375000 -3.000000 0.0 
12.750000 -3.000000 0.0 
13.125000 -3.000000 0.0 
13.500000 -3.000000 0.0 
13.875000 -3.000000 0.0 
14.250000 -3.000000 0.0 
14.625000 -3.000000 0.0 
15.000000 -3.000000 0.0 
15.375000 -3.000000 0.0 
15.750000 -3.000000 0.0 
16.125000 -3.000000 0.0 
16.500000 -3.000000 0.0 
16.875000 -3.000000 0.0 
17.250000 -3.000000 0.0 
17.625000 -3.000000 0.0 
18.000000 -3.000000 0.0 
18.375000 -3.000000 0.0 
18.750000 -3.000000 0.0 
19.125000 -3.000000 0.0 
19.500000 -3.000000 0.0 
19.875000 -3.000000 0.0 
20.250000 -3.000000 0.0 
20.625000 -3.000000 0.0 
21.000000 -3.000000 0.0 
21.375000 -3.000000 0.0 
21.750000 -3.000000 0.0 
22.125000 -3.000000 0.0 
22.500000 -3.000000 0.0 
22.875000 -3.000000 0.0 
23.250000 -3.000000 0.0 
23.625000 -3.000000 0.0 
24.000000 -3.000000 0.0 
0.000000 -2.625000 0.0 
0.375000 -2.625000 0.0 
0.750000 -2.625000 0.0 
1.125000 -2.625000 0.0 
1.500000 -2.625000 0.0 
1.875000 -2.625000 0.0 
2.250000 -2.625000 0.0 
2.625000 -2.625000 0.0 
3.000000 -2.625000 0.0 
3.375000 -2.625000 0.0 
3.750000 -2.625000 0.0 
4.125000 -2.625000 0.0 
4.500000 -2.625000 0.0 
4.875000 -2.625000 0.0 
5.250000 -2.625000 0.0 
5.625000 -2.625000 0.0 
6.000000 -2.625000 0.0 
6.375000 -2.625000 0.0 
6.750000 -2.625000 0.0 
7.125000 -2.625000 0.0 
7.500000 -2.625000 0.0 
7.875000 -2.625000 0.0 
8.250000 -2.625000 0.0 
8.625000 -2.625000 0.0 
9.000000 -2.625000 0.0 
9.375000 -2.625000 0.0 
9.750000 -2.625000 0.0 
10.125000 -2.625000 0.0 
10.500000 -2.625000 0.0 
10.875000 -2.625000 0.0 
11.250000 -2.625000 0.0 
11.625000 -2.625000 0.0 
12.000000 -2.625000 0.0 
12.375000 -2.625000 0.0 
12.750000 -2.625000 0.0 
13.125000 -2.625000 0.0 
13.500000 -2.625000 0.0 
13.875000 -2.625000 0.0 
14.250000 -2.625000 0.0 
14.625000 -2.625000 0.0 
15.000000 -2.625000 0.0 
15.375000 -2.625000 0.0 
15.750000 -2.625000 0.0 
16.125000 -2.625000 0.0 
16.500000 -2.625000 0.0 
16.875000 -2.625000 0.0 
17.250000 -2.625000 0.0 
17.625000 -2.625000 0.0 
18.000000 -2.625000 0.0 
18.375000 -2.625000 0.0 
18.750000 -2.625000 0.0 
19.125000 -2.625000 0.0 
19.500000 -2.625000 0.0 
19.875000 -2.625000 0.0 
20.250000 -2.625000 0.0 
20.625000 -2.625000 0.0 
21.000000 -2.625000 0.0 
21.375000 -2.625000 0.0 
21.750000 -2.625000 0.0 
22.125000 -2.625000 0.0 
22.500000 -2.625000 0.0 
22.875000 -2.625000 0.0 
23.250000 -2.625000 0.0 
23.625000 -2.625000 0.0 
24.000000 -2.625000 0.0 
0.000000 -2.250000 0.0 
0.375000 -2.250000 0.0 
0.750000 -2.250000 0.0 
1.125000 -2.250000 0.0 
1.500000 -2.250000 0.0 
1.875000 -2.250000 0.0 
2.250000 -2.250000 0.0 
2.625000 -2.250000 0.0 
3.000000 -2.250000 0.0 
3.375000 -2.250000 0.0 
3.750000 -2.250000 0.0 
4.125000 -2.250000 0.0 
4.500000 -2.250000 0.0 
4.875000 -2.250000 0.0 
5.250000 -2.250000 0.0 
5.625000 -2.250000 0.0 
6.000000 -2.250000 0.0 
6.375000 -2.250000 0.0 
6.750000 -2.250000 0.0 
7.125000 -2.250000 0.0 
7.500000 -2.250000 0.0 
7.875000 -2.250000 0.0 
8.250000 -2.250000 0.0 
8.625000 -2.250000 0.0 
9.000000 -2.250000 0.0 
9.375000 -2.250000 0.0 
9.750000 -2.250000 0.0 
10.125000 -2.250000 0.0 
10.500000 -2.250000 0.0 
10.875000 -2.250000 0.0 
11.250000 -2.250000 0.0 
11.625000 -2.250000 0.0 
12.000000 -2.250000 0.0 
12.375000 -2.250000 0.0 
12.750000 -2.250000 0.0 
13.125000 -2.250000 0.0 
13.500000 -2.250000 0.0 
13.875000 -2.250000 0.0 
14.250000 -2.250000 0.0 
14.625000 -2.250000 0.0 
15.000000 -2.250000 0.0 
15.375000 -2.250000 0.0 
15.750000 -2.250000 0.0 
16.125000 -2.250000 0.0 
16.500000 -2.250000 0.0 
16.875000 -2.250000 0.0 
17.250000 -2.250000 0.0 
17.625000 -2.250000 0.0 
18.000000 -2.250000 0.0 
18.375000 -2.250000 0.0 
18.750000 -2.250000 0.0 
19.125000 -2.250000 0.0 
19.500000 -2.250000 0.0 
19.875000 -2.250000 0.0 
20.250000 -2.250000 0.0 
20.625000 -2.250000 0.0 
21.000000 -2.250000 0.0 
21.375000 -2.250000 0.0 
21.750000 -2.250000 0.0 
22.125000 -2.250000 0.0 
22.500000 -2.250000 0.0 
22.875000 -2.250000 0.0 
23.250000 -2.250000 0.0 
23.625000 -2.250000 0.0 
24.000000 -2.250000 0.0 
0.000000 -1.875000 0.0 
0.375000 -1.875000 0.0 
0.750000 -1.875000 0.0 
1.125000 -1.875000 0.0 
1.500000 -1.875000 0.0 
1.875000 -1.875000 0.0 
2.250000 -1.875000 0.0 
2.625000 -1.875000 0.0 
3.000000 -1.875000 0.0 
3.375000 -1.875000 0.0 
3.750000 -1.875000 0.0 
4.125000 -1.875000 0.0 
4.500000 -1.875000 0.0 
4.875000 -1.875000 0.0 
5.250000 -1.875000 0.0 
5.625000 -1.875000 0.0 
6.000000 -1.875000 0.0 
6.375000 -1.875000 0.0 
6.750000 -1.875000 0.0 
7.125000 -1.875000 0.0 
7.500000 -1.875000 0.0 
7.875000 -1.875000 0.0 
8.250000 -1.875000 0.0 
8.625000 -1.875000 0.0 
9.000000 -1.875000 0.0 
9.375000 -1.875000 0.0 
9.750000 -1.875000 0.0 
10.125000 -1.875000 0.0 
10.500000 -1.875000 0.0 
10.875000 -1.875000 0.0 
11.250000 -1.875000 0.0 
11.625000 -1.875000 0.0 
12.000000 -1.875000 0.0 
12.375000 -1.875000 0.0 
12.750000 -1.875000 0.0 
13.125000 -1.875000 0.0 
13.500000 -1.875000 0.0 
13.875000 -1.875000 0.0 
14.250000 -1.875000 0.0 
14.625000 -1.875000 0.0 
15.000000 -1.875000 0.0 
15.375000 -1.875000 0.0 
15.750000 -1.875000 0.0 
16.125000 -1.875000 0.0 
16.500000 -1.875000 0.0 
16.875000 -1.875000 0.0 
17.250000 -1.875000 0.0 
17.625000 -1.875000 0.0 
18.000000 -1.875000 0.0 
18.375000 -1.875000 0.0 
18.750000 -1.875000 0.0 
19.125000 -1.875000 0.0 
19.500000 -1.875000 0.0 
19.875000 -1.875000 0.0 
20.250000 -1.875000 0.0 
20.625000 -1.875000 0.0 
21.000000 -1.875000 0.0 
21.375000 -1.875000 0.0 
21.750000 -1.875000 0.0 
22.125000 -1.875000 0.0 
22.500000 -1.875000 0.0 
22.875000 -1.875000 0.0 
23.250000 -1.875000 0.0 
23.625000 -1.875000 0.0 
24.000000 -1.875000 0.0 
0.000000 -1.500000 0.0 
0.375000 -1.500000 0.0 
0.750000 -1.500000 0.0 
1.125000 -1.500000 0.0 
1.500000 -1.500000 0.0 
1.875000 -1.500000 0.0 
2.250000 -1.500000 0.0 
2.625000 -1.500000 0.0 
3.000000 -1.500000 0.0 
3.375000 -1.500000 0.0 
3.750000 -1.500000 0.0 
4.125000 -1.500000 0.0 
4.500000 -1.500000 0.0 
4.875000 -1.500000 0.0 
5.250000 -1.500000 0.0 
5.625000 -1.500000 0.0 
6.000000 -1.500000 0.0 
6.375000 -1.500000 0.0 
6.750000 -1.500000 0.0 
7.125000 -1.500000 0.0 
7.500000 -1.500000 0.0 
7.875000 -1.500000 0.0 
8.250000 -1.500000 0.0 
8.625000 -1.500000 0.0 
9.000000 -1.500000 0.0 
9.375000 -1.500000 0.0 
9.750000 -1.500000 0.0 
10.125000 -1.500000 0.0 
10.500000 -1.500000 0.0 
10.875000 -1.500000 0.0 
11.250000 -1.500000 0.0 
11.625000 -1.500000 0.0 
12.000000 -1.500000 0.0 
12.375000 -1.500000 0.0 
12.750000 -1.500000 0.0 
13.125000 -1.500000 0.0 
13.500000 -1.500000 0.0 
13.875000 -1.500000 0.0 
14.250000 -1.500000 0.0 
14.625000 -1.500000 0.0 
15.000000 -1.500000 0.0 
15.375000 -1.500000 0.0 
15.750000 -1.500000 0.0 
16.125000 -1.500000 0.0 
16.500000 -1.500000 0.0 
16.875000 -1.500000 0.0 
17.250000 -1.500000 0.0 
17.625000 -1.500000 0.0 
18.000000 -1.500000 0.0 
18.375000 -1.500000 0.0 
18.750000 -1.500000 0.0 
19.125000 -1.500000 0.0 
19.500000 -1.500000 0.0 
19.875000 -1.500000 0.0 
20.250000 -1.500000 0.0 
20.625000 -1.500000 0.0 
21.000000 -1.500000 0.0 
21.375000 -1.500000 0.0 
21.750000 -1.500000 0.0 
22.125000 -1.500000 0.0 
22.500000 -1.500000 0.0 
22.875000 -1.500000 0.0 
23.250000 -1.500000 0.0 
23.625000 -1.500000 0.0 
24.000000 -1.500000 0.0 
0.000000 -1.125000 0.0 
0.375000 -1.125000 0.0 
0.750000 -1.125000 0.0 
1.125000 -1.125000 0.0 
1.500000 -1.125000 0.0 
1.875000 -1.125000 0.0 
2.250000 -1.125000 0.0 
2.625000 -1.125000 0.0 
3.000000 -1.125000 0.0 
3.375000 -1.125000 0.0 
3.750000 -1.125000 0.0 
4.125000 -1.125000 0.0 
4.500000 -1.125000 0.0 
4.875000 -1.125000 0.0 
5.250000 -1.125000 0.0 
5.625000 -1.125000 0.0 
6.000000 -1.125000 0.0 
6.375000 -1.125000 0.0 
6.750000 -1.125000 0.0 
7.125000 -1.125000 0.0 
7.500000 -1.125000 0.0 
7.875000 -1.125000 0.0 
8.250000 -1.125000 0.0 
8.625000 -1.125000 0.0 
9.000000 -1.125000 0.0 
9.375000 -1.125000 0.0 
9.750000 -1.125000 0.0 
10.125000 -1.125000 0.0 
10.500000 -1.125000 0.0 
10.875000 -1.125000 0.0 
11.250000 -1.125000 0.0 
11.625000 -1.125000 0.0 
12.000000 -1.125000 0.0 
12.375000 -1.125000 0.0 
12.750000 -1.125000 0.0 
13.125000 -1.125000 0.0 
13.500000 -1.125000 0.0 
13.875000 -1.125000 0.0 
14.250000 -1.125000 0.0 
14.625000 -1.125000 0.0 
15.000000 -1.125000 0.0 
15.375000 -1.125000 0.0 
15.750000 -1.125000 0.0 
16.125000 -1.125000 0.0 
16.500000 -1.125000 0.0 
16.875000 -1.125000 0.0 
17.250000 -1.125000 0.0 
17.625000 -1.125000 0.0 
18.000000 -1.125000 0.0 
18.375000 -1.125000 0.0 
18.750000 -1.125000 0.0 
19.125000 -1.125000 0.0 
19.500000 -1.125000 0.0 
19.875000 -1.125000 0.0 
20.250000 -1.125000 0.0 
20.625000 -1.125000 0.0 
21.000000 -1.125000 0.0 
21.375000 -1.125000 0.0 
21.750000 -1.125000 0.0 
22.125000 -1.125000 0.0 
22.500000 -1.125000 0.0 
22.875000 -1.125000 0.0 
23.250000 -1.125000 0.0 
23.625000 -1.125000 0.0 
24.000000 -1.125000 0.0 
0.000000 -0.750000 0.0 
0.375000 -0.750000 0.0 
0.750000 -0.750000 0.0 
1.125000 -0.750000 0.0 
1.500000 -0.750000 0.0 
1.875000 -0.750000 0.0 
2.250000 -0.750000 0.0 
2.625000 -0.750000 0.0 
[...]
<PointData  Vectors="sigma"> 
<DataArray  type="Float64"  Name="sigma" NumberOfComponents="3" format="ascii"> 
8921.272188   5078.665532   3924.537401   
1256.142830   -151.469044   -150.683042   
1109.356603   -95.723707   -24.532913   
1043.902945   58.014541   3.026949   
993.158920   -26.718768   -1.117964   
980.262113   14.773232   -0.795581   
930.332257   -6.414880   0.817784   
885.011733   3.526178   -0.623454   
819.692727   -1.461148   0.432674   
751.722602   0.834198   -0.217815   
675.146723   -0.325010   0.147080   
595.908991   0.198649   -0.053809   
513.239536   -0.073415   0.042358   
429.086988   0.047874   -0.009154   
343.636377   -0.017882   0.011522   
257.536655   0.011476   -0.000397   
170.977411   -0.005001   0.003182   
84.178830   0.002591   0.000474   
-2.766898   -0.001634   0.000916   
-89.786472   0.000479   0.000248   
-176.845663   -0.000595   0.000263   
-263.921925   0.000033   0.000077   
-351.005123   -0.000226   0.000068   
-438.089459   -0.000030   0.000013   
-525.172880   -0.000086   0.000012   
-612.254503   -0.000022   -0.000003   
-699.334394   -0.000031   -0.000001   
-786.412778   -0.000010   -0.000004   
-873.490015   -0.000010   -0.000002   
-960.566392   -0.000003   -0.000002   
-1047.642143   -0.000003   -0.000001   
-1134.717401   -0.000001   -0.000000   
-1221.792220   -0.000002   0.000001   
-1308.866547   -0.000002   0.000003   
-1395.940221   -0.000005   0.000005   
-1483.012929   -0.000007   0.000008   
-1570.084184   -0.000020   0.000009   
-1657.153241   -0.000023   0.000015   
-1744.219109   -0.000064   0.000013   
-1831.280433   -0.000060   0.000020   
-1918.335752   -0.000183   -0.000000   
-2005.383467   -0.000123   0.000002   
-2092.423093   -0.000493   -0.000089   
-2179.455748   -0.000145   -0.000111   
-2266.488749   -0.001280   -0.000454   
-2353.537618   0.000306   -0.000482   
-2440.641414   -0.003337   -0.001765   
-2527.865611   0.003221   -0.001219   
-2615.354737   -0.009346   -0.006357   
-2703.312137   0.016930   -0.000982   
-2792.201924   -0.030365   -0.022601   
-2882.526486   0.075778   0.009779   
-2975.684510   -0.117204   -0.079243   
-3072.571590   0.323677   0.071866   
-3177.309830   -0.507857   -0.260654   
-3290.294704   1.372383   0.303774   
-3423.530023   -2.284589   -0.726321   
-3571.590206   5.818202   0.842635   
-3767.855325   -10.105629   -1.264913   
-3982.600319   24.484433   0.736335   
-4294.738444   -42.342060   2.293397   
-4603.956730   97.431961   -6.205726   
-4976.562876   -150.999834   42.356883   
-5347.046981   -263.738010   283.151912   
6792.063490   8369.462742   -6672.393747   
1394.074403   1535.165610   957.618326   
1450.438485   968.609895   751.015699   
1392.018357   254.801615   376.974129   
1185.291858   65.213825   153.442381   
1040.246389   15.159519   81.309029   
945.413884   2.592692   61.487448   
869.474247   -2.435961   58.892691   
801.267830   -2.925664   62.214422   
733.572988   -2.859286   66.676845   
665.062435   -2.221691   70.868301   
594.708540   -1.672569   74.193082   
522.820660   -1.173151   76.683054   
449.583008   -0.800140   78.432510   
375.375533   -0.526387   79.626560   
300.461550   -0.336483   80.409437   
225.073241   -0.209191   80.910438   
149.370302   -0.126105   81.220541   
73.467340   -0.073732   81.407482   
-2.559629   -0.041488   81.516282   
-78.661131   -0.022312   81.577391   
-154.805889   -0.011257   81.610068   
-230.974879   -0.005144   81.626460   
-307.156748   -0.001935   81.633861   
-383.345040   -0.000370   81.636574   
-459.536192   0.000301   81.637016   
-535.728359   0.000518   81.636499   
-611.920654   0.000522   81.635685   
-688.112704   0.000445   81.634878   
-764.304394   0.000353   81.634189   
-840.495723   0.000275   81.633636   
-916.686721   0.000225   81.633187   
-992.877415   0.000210   81.632789   
-1069.067802   0.000237   81.632378   
-1145.257837   0.000312   81.631874   
-1221.447419   0.000446   81.631182   
-1297.636389   0.000654   81.630187   
-1373.824519   0.000947   81.628755   
-1450.011533   0.001331   81.626744   
-1526.197146   0.001781   81.624043   
-1602.381183   0.002215   81.620659   
-1678.563823   0.002428   81.616897   
-1754.746092   0.001994   81.613685   
-1830.930734   0.000072   81.613180   
-1907.123834   -0.004857   81.619777   
-1983.337425   -0.015479   81.641867   
-2059.594069   -0.036340   81.694503   
-2135.933704   -0.074860   81.803961   
-2212.425021   -0.143040   82.013918   
-2289.181746   -0.259057   82.396180   
-2366.386415   -0.451109   83.062552   
-2444.326788   -0.758836   84.188043   
-2523.429559   -1.239304   86.025910   
-2604.343350   -1.969390   88.954194   
-2687.915450   -3.033801   93.464286   
-2775.407478   -4.568724   100.247487   
-2868.045009   -6.563333   110.014633   
-2967.654806   -9.259120   123.624323   
-3074.255953   -11.751643   141.133354   
-3187.733922   -14.325137   161.608464   
-3298.011831   -10.463777   178.400646   
-3386.713311   5.315703   173.566987   
-3395.835214   86.632989   84.306199   
-3286.865560   427.086247   -276.677043   
-3405.654122   1824.387339   -978.016674   
-3605.332641   2952.324955   -1396.884695   
805.896333   1521.223195   564.597945   
948.305002   1132.052946   549.626389   
1097.215620   515.617449   442.311733   
1062.014919   197.689599   286.461364   
970.773199   69.766607   191.966788   
877.844356   19.144902   149.497890   
795.277846   0.453465   134.873392   
720.600292   -6.001742   132.456243   
651.075365   -7.059869   134.978406   
584.081208   -6.320741   138.776946   
518.448226   -4.964712   142.468580   
453.316264   -3.659879   145.483627   
388.381496   -2.561547   147.765161   
323.439794   -1.730254   149.388129   
258.445503   -1.129859   150.499528   
193.374923   -0.716682   151.232436   
128.239038   -0.441253   151.701861   
63.049243   -0.263595   151.993263   
-2.179712   -0.152232   152.168937   
-67.436492   -0.084496   152.271347   
-132.711927   -0.044569   152.328858   
-197.999575   -0.021865   152.359647   
-263.294930   -0.009504   152.375093   
-328.595017   -0.003155   152.382076   
-393.897915   -0.000167   152.384638   
-459.202426   0.001034   152.385057   
-524.507823   0.001349   152.384566   
-589.813678   0.001274   152.383785   
-655.119749   0.001072   152.382994   
-720.425898   0.000874   152.382291   
-785.732054   0.000744   152.381678   
-851.038176   0.000714   152.381105   
-916.344240   0.000809   152.380495   
-981.650229   0.001055   152.379750   
-1046.956134   0.001483   152.378752   
-1112.261960   0.002124   152.377364   
-1177.567737   0.002998   152.375446   
-1242.873560   0.004075   152.372891   
-1308.179643   0.005209   152.369701   
-1373.486422   0.006017   152.366163   
-1438.794726   0.005653   152.363149   
-1504.106049   0.002441   152.362692   
-1569.422982   -0.006744   152.368938   
-1634.749868   -0.027463   152.389770   
-1700.093745   -0.069239   152.439392   
-1765.465758   -0.147867   152.542450   
-1830.882756   -0.288758   152.740137   
-1896.370016   -0.531665   153.099540   
-1961.962217   -0.936710   153.725985   
-2027.708186   -1.592577   154.781491   
-2093.662703   -2.622891   156.503636   
-2159.894816   -4.197580   159.234855   
-2226.432740   -6.519104   163.429637   
-2293.282162   -9.834970   169.678991   
-2360.187143   -14.301646   178.608463   
-2426.681409   -19.998917   190.802912   
-2491.254324   -26.216993   206.201743   
-2551.511973   -31.384700   223.468733   
-2601.999145   -29.671911   237.401159   
-2635.441696   -8.855740   235.631301   
-2643.020890   67.613103   189.515652   
-2637.010433   289.195329   48.185417   
-2707.995880   886.462579   -220.121483   
-3083.463296   2138.810026   -454.769599   
-3386.092882   2955.984227   -523.171342   
552.224454   1329.186635   264.982313   
651.989637   1061.278473   323.667446   
801.982874   600.767239   367.981370   
849.804779   295.635234   321.107231   
821.717997   127.959379   264.847701   
762.092150   46.786213   227.871145   
693.930189   10.102898   209.145780   
626.537852   -4.529765   202.054600   
561.995988   -9.167361   200.845343   
500.500698   -9.320112   202.230025   
441.305097   -7.875560   204.370974   
383.824591   -6.032994   206.478110   
327.473574   -4.358156   208.220584   
271.883666   -3.007911   209.546472   
216.767175   -2.003940   210.494060   
161.949521   -1.292651   211.144105   
107.309010   -0.809504   211.573294   
52.773377   -0.491880   211.848194   
-1.703731   -0.289532   212.018773   
-56.148961   -0.164361   212.121515   
-110.578103   -0.089271   212.181326   
-164.999742   -0.045702   212.214855   
-219.418482   -0.021387   212.232757   
-273.836564   -0.008471   212.241703   
-328.254977   -0.002064   212.245718   
-382.674052   0.000781   212.247162   
-437.093815   0.001788   212.247364   
-491.514170   0.001930   212.247036   
-545.934987   0.001736   212.246532   
-600.356149   0.001480   212.246006   
-654.777565   0.001302   212.245502   
-709.199181   0.001279   212.245001   
-763.620977   0.001459   212.244453   
-818.042974   0.001887   212.243786   
-872.465238   0.002611   212.242912   
-926.887893   0.003666   212.241741   
-981.311139   0.005049   212.240201   
-1035.735268   0.006643   212.238286   
-1090.160684   0.008091   212.236150   
-1144.587905   0.008549   212.234294   
-1199.017527   0.006281   212.233888   
-1253.450103   -0.002043   212.237341   
-1307.885846   -0.022458   212.249245   
-1362.324012   -0.065481   212.277889   
-1416.761748   -0.148796   212.337690   
-1471.191835   -0.301253   212.452749   
-1525.599177   -0.568516   212.662376   
-1579.953745   -1.020670   213.028249   
-1634.201541   -1.762121   213.645193   
-1688.244364   -2.941707   214.651975   
-1741.920496   -4.764600   216.247503   
-1794.949764   -7.489270   218.694258   
-1846.903297   -11.424080   222.326862   
-1897.061981   -16.835964   227.491859   
-1944.408723   -23.862366   234.485329   
-1987.302329   -32.035438   243.221675   
-2023.700291   -39.835707   252.892286   
-2050.688746   -42.699108   260.757545   
-2066.112655   -30.913461   261.189501   
-2070.060244   18.256949   242.931048   
-2074.496654   149.984837   191.307463   
-2116.698407   453.519707   97.056150   
-2278.848275   1053.431556   5.933786   
-2624.509913   2042.152504   52.581520   
-2844.960464   2640.843696   131.975796   
353.607434   1089.405095   49.975047   
438.667854   906.842529   141.432576   
572.816378   572.652122   265.641761   
638.125991   319.984222   300.603028   
645.905210   159.034135   295.394996   
616.750299   67.797864   280.960414   
569.975267   21.243584   269.322357   
516.872406   -0.192136   262.417658   
463.157760   -8.324955   259.224279   
410.890215   -10.126795   258.195359   
360.679983   -9.169217   258.268918   
312.326937   -7.333095   258.765678   
265.490245   -5.439964   259.358488   
219.762333   -3.836012   259.888695   
174.822430   -2.597381   260.311214   
130.410367   -1.700593   260.622133   
86.345414   -1.079242   260.840229   
42.499153   -0.664765   260.986701   
-1.212051   -0.396912   261.081967   
-44.843019   -0.229050   261.141900   
-88.427626   -0.126958   261.178518   
-131.986637   -0.066832   261.200157   
-175.532178   -0.032678   261.212507   
-219.071165   -0.014115   261.219251   
-262.607333   -0.004600   261.222731   
-306.142600   -0.000131   261.224377   
-349.677859   0.001664   261.225040   
-393.213468   0.002147   261.225206   
-436.749521   0.002072   261.225139   
-480.285998   0.001843   261.224973   
-523.822852   0.001672   261.224766   
-567.360047   0.001673   261.224532   
-610.897581   0.001919   261.224262   
-654.435505   0.002467   261.223934   
-697.973930   0.003368   261.223524   
-741.513039   0.004648   261.223013   
-785.053093   0.006262   261.222414   
-828.594422   0.007990   261.221802   
-872.137381   0.009257   261.221385   
-915.682236   0.008797   261.221625   
-959.228908   0.004092   261.223433   
-1002.776468   -0.009561   261.228510   
-1046.322177   -0.040532   261.239867   
-1089.859822   -0.103178   261.262666   
-1133.376745   -0.221314   261.305403   
-1176.849153   -0.433279   261.381771   
-1220.234025   -0.798900   261.512899   
-1263.457594   -1.408838   261.730819   
-1306.395436   -2.395193   262.081312   
-1348.848291   -3.943784   262.628448   
-1390.497996   -6.298821   263.452871   
-1430.868104   -9.762143   264.650944   
-1469.239559   -14.642706   266.305907   
-1504.624619   -21.174775   268.454501   
-1535.650151   -29.228630   270.959940   
-1560.712187   -37.915415   273.371636   
-1578.015092   -44.465691   274.564503   
-1586.593207   -42.806643   272.461196   
-1587.531670   -19.984295   263.759236   
-1587.986464   47.785928   244.985890   
-1605.953530   202.392294   217.495383   
-1676.194456   503.915236   199.149339   
-1843.021567   1018.232796   249.619763   
-2134.191936   1763.912153   450.532117   
-2312.446045   2191.013126   597.856628   
238.785612   825.565080   -100.807948   
294.195435   702.612674   6.991395   
390.538333   472.877921   175.059895   
450.627087   286.143209   262.728547   
470.871211   154.582205   299.791051   
460.884792   72.757548   311.108806   
432.543771   26.869656   311.777003   
395.341677   3.927850   309.205424   
355.040678   -5.925531   306.271268   
314.706050   -8.876048   303.907913   
275.546606   -8.638161   302.214780   
237.903516   -7.163444   301.089146   
201.640877   -5.448205   300.366267   
166.501878   -3.907292   299.920084   
132.195282   -2.683246   299.650692   
98.480219   -1.776844   299.493830   
65.164510   -1.139785   299.404940   
32.111206   -0.709152   299.356915   
-0.776088   -0.427947   299.332226   
-33.560986   -0.249858   299.320649   
-66.284936   -0.140459   299.315970   
-98.973719   -0.075319   299.314756   
-131.643079   -0.037854   299.315075   
-164.302238   -0.017172   299.315949   
-196.956439   -0.006341   299.316899   
-229.608520   -0.001079   299.317730   
-262.259935   0.001179   299.318382   
-294.911365   0.001925   299.318862   
-327.563087   0.001994   299.319201   
-360.215181   0.001843   299.319435   
-392.867655   0.001714   299.319600   
-425.520501   0.001741   299.319729   
-458.173736   0.002005   299.319853   
-490.827423   0.002566   299.320005   
-523.481683   0.003468   299.320227   
-556.136698   0.004719   299.320572   
-588.792711   0.006239   299.321115   
-621.449988   0.007747   299.321954   
-654.108731   0.008556   299.323218   
-686.768885   0.007213   299.325057   
-719.429753   0.000898   299.327623   
-752.089273   -0.015567   299.331002   
-784.742740   -0.051283   299.335095   
-817.380572   -0.121681   299.339334   
-849.984702   -0.252107   299.342254   
-882.522537   -0.482921   299.340543   
-914.938005   -0.876541   299.327773   
-947.136995   -1.526140   299.291593   
-978.968170   -2.566218   299.210467   
-1010.192125   -4.180688   299.046016   
-1040.448534   -6.608014   298.735705   
-1069.202498   -10.121842   298.173368   
-1095.714709   -14.987589   297.196191   
-1118.985217   -21.312688   295.540404   
-1137.830825   -28.809291   292.836155   
-1150.967359   -36.202304   288.539620   
-1157.570102   -40.417429   282.075712   
-1157.985637   -34.841557   272.968621   
-1155.643670   -7.406778   262.046840   
-1159.068882   62.618277   253.219682   
-1184.753500   205.401029   259.429256   
-1256.145230   458.219615   308.184853   
-1396.770610   849.680919   453.663731   
-1607.907619   1380.333881   745.744394   
-1728.676534   1678.523336   931.711393   
141.558775   554.330695   -200.504307   
178.950473   478.441508   -84.646661   
243.791111   333.634434   107.061178   
286.657630   211.063190   226.973147   
305.756497   120.166814   293.477195   
304.543801   60.018072   325.686142   
289.431593   24.331159   338.475307   
266.484216   5.353710   341.453820   
240.129612   -3.336996   340.164513   
212.953392   -6.363794   337.442833   
186.266902   -6.573221   334.627964   
160.529907   -5.623340   332.230537   
135.800806   -4.355712   330.385907   
111.934635   -3.167052   329.050039   
88.743641   -2.196677   328.127429   
66.042556   -1.467443   327.512376   
43.682733   -0.948319   327.115906   
21.550236   -0.594370   326.867664   
-0.435122   -0.361286   326.717025   
-22.328533   -0.212641   326.628423   
-44.166055   -0.120659   326.578226   
-65.970789   -0.065485   326.551009   
-87.756947   -0.033482   326.537127   
-109.533066   -0.015634   326.530663   
-131.304076   -0.006158   326.528137   
-153.072726   -0.001458   326.527555   
-174.840467   0.000636   326.527833   
-196.608020   0.001396   326.528414   
-218.375707   0.001542   326.529038   
-240.143652   0.001470   326.529610   
-261.911891   0.001395   326.530118   
-283.680436   0.001433   326.530600   
-305.449311   0.001656   326.531114   
-327.218573   0.002112   326.531742   
-348.988319   0.002833   326.532577   
-370.758692   0.003816   326.533729   
-392.529867   0.004973   326.535301   
-414.302011   0.006042   326.537366   
-436.075190   0.006404   326.539885   
-457.849170   0.004783   326.542565   
-479.623045   -0.001263   326.544580   
-501.394551   -0.016168   326.544095   
-523.158869   -0.047659   326.537415   
-544.906629   -0.108739   326.517648   
-566.620579   -0.220603   326.472441   
-588.270483   -0.416796   326.380658   
-609.804924   -0.748698   326.207026   
-631.139893   -1.292576   325.894947   
-652.141126   -2.156722   325.355424   
-672.602999   -3.488232   324.454337   
-692.217188   -5.470894   322.993989   
-710.547078   -8.311903   320.699143   
-726.992983   -12.183949   317.200918   
-740.808954   -17.120004   312.054120   
-751.138484   -22.754342   304.785513   
-757.248583   -27.933984   295.075595   
-758.878459   -29.934505   283.127719   
-757.076921   -23.508959   270.444546   
-755.204730   0.622504   261.360322   
-760.315273   56.636459   265.281994   
-783.623269   163.636291   300.935109   
-838.696546   341.578044   398.195276   
-936.363889   603.612438   603.907355   
-1076.397892   945.111062   946.541147   
-1156.012817   1133.554480   1151.855271   
68.049765   277.805660   -257.726505   
85.482311   241.420730   -137.716286   
116.872995   171.682392   66.062174   
139.141991   111.354635   202.910947   
150.169679   65.182287   286.258964   
151.129181   33.658417   331.591107   
144.753828   14.296842   352.729548   
133.959978   3.680078   360.063320   
121.022348   -1.387892   360.410254   
107.419435   -3.265176   357.823033   
93.926660   -3.522216   354.443120   
80.879585   -3.071220   351.280594   
68.345024   -2.408952   348.700726   
56.275696   -1.765659   346.761188   
44.576636   -1.232856   345.380125   
33.153335   -0.827748   344.438363   
21.923622   -0.537487   343.818066   
10.824976   -0.338309   343.422561   
-0.188341   -0.206566   343.177808   
-11.147665   -0.122152   343.031067   
-22.073957   -0.069703   342.945972   
-32.980633   -0.038098   342.898560   
-43.876091   -0.019676   342.873421   
-54.765388   -0.009339   342.861006   
-65.651491   -0.003807   342.855543   
-76.536068   -0.001031   342.853678   
-87.420017   0.000232   342.853526   
-98.303792   0.000713   342.854087   
-109.187606   0.000827   342.854866   
-120.071547   0.000807   342.855655   
-130.955645   0.000776   342.856400   
-141.839914   0.000804   342.857132   
-152.724370   0.000932   342.857929   
-163.609046   0.001188   342.858899   
-174.493997   0.001587   342.860173   
-185.379299   0.002125   342.861887   
-196.265042   0.002745   342.864158   
-207.151302   0.003288   342.867014   
-218.038082   0.003388   342.870259   
-228.925188   0.002299   342.873219   
-239.812002   -0.001395   342.874271   
-250.697071   -0.010250   342.870037   
-261.577394   -0.028697   342.854038   
-272.447229   -0.064159   342.814472   
-283.296192   -0.128691   342.730810   
-294.106189   -0.241269   342.568417   