<VTKFile type="UnstructuredGrid"  version="0.1"   > 
<UnstructuredGrid> 
<Piece  NumberOfPoints="  4369" NumberOfCells=" 4096"> 
<Points> 
<DataArray  type="Float64"  NumberOfComponents="3"  format="ascii" > 
0.000000 -3.000000 0.0 
0.093750 -3.000000 0.0 
0.187500 -3.000000 0.0 
0.281250 -3.000000 0.0 
0.375000 -3.000000 0.0 
0.468750 -3.000000 0.0 
0.562500 -3.000000 0.0 
0.656250 -3.000000 0.0 
0.750000 -3.000000 0.0 
0.843750 -3.000000 0.0 
0.937500 -3.000000 0.0 
1.031250 -3.000000 0.0 
1.125000 -3.000000 0.0 
1.218750 -3.000000 0.0 
1.312500 -3.000000 0.0 
1.406250 -3.000000 0.0 
1.500000 -3.000000 0.0 
1.593750 -3.000000 0.0 
1.687500 -3.000000 0.0 
1.781250 -3.000000 0.0 
1.875000 -3.000000 0.0 
1.968750 -3.000000 0.0 
2.062500 -3.000000 0.0 
2.156250 -3.000000 0.0 
2.250000 -3.000000 0.0 
2.343750 -3.000000 0.0 
2.437500 -3.000000 0.0 
2.531250 -3.000000 0.0 
2.625000 -3.000000 0.0 
2.718750 -3.000000 0.0 
2.812500 -3.000000 0.0 
2.906250 -3.000000 0.0 
3.000000 -3.000000 0.0 
3.093750 -3.000000 0.0 
3.187500 -3.000000 0.0 
3.281250 -3.000000 0.0 
3.375000 -3.000000 0.0 
3.468750 -3.000000 0.0 
3.562500 -3.000000 0.0 
3.656250 -3.000000 0.0 
3.750000 -3.000000 0.0 
3.843750 -3.000000 0.0 
3.937500 -3.000000 0.0 
4.031250 -3.000000 0.0 
4.125000 -3.000000 0.0 
4.218750 -3.000000 0.0 
4.312500 -3.000000 0.0 
4.406250 -3.000000 0.0 
4.500000 -3.000000 0.0 
4.593750 -3.000000 0.0 
4.687500 -3.000000 0.0 
4.781250 -3.000000 0.0 
4.875000 -3.000000 0.0 
4.968750 -3.000000 0.0 
5.062500 -3.000000 0.0 
5.156250 -3.000000 0.0 
5.250000 -3.000000 0.0 
5.343750 -3.000000 0.0 
5.437500 -3.000000 0.0 
5.531250 -3.000000 0.0 
5.625000 -3.000000 0.0 
5.718750 -3.000000 0.0 
5.812500 -3.000000 0.0 
5.906250 -3.000000 0.0 
6.000000 -3.000000 0.0 
6.093750 -3.000000 0.0 
6.187500 -3.000000 0.0 
6.281250 -3.000000 0.0 
6.375000 -3.000000 0.0 
6.468750 -3.000000 0.0 
6.562500 -3.000000 0.0 
6.656250 -3.000000 0.0 
6.750000 -3.000000 0.0 
6.843750 -3.000000 0.0 
6.937500 -3.000000 0.0 
7.031250 -3.000000 0.0 
7.125000 -3.000000 0.0 
7.218750 -3.000000 0.0 
7.312500 -3.000000 0.0 
7.406250 -3.000000 0.0 
7.500000 -3.000000 0.0 
7.593750 -3.000000 0.0 
7.687500 -3.000000 0.0 
7.781250 -3.000000 0.0 
7.875000 -3.000000 0.0 
7.968750 -3.000000 0.0 
8.062500 -3.000000 0.0 
8.156250 -3.000000 0.0 
8.250000 -3.000000 0.0 
8.343750 -3.000000 0.0 
8.437500 -3.000000 0.0 
8.531250 -3.000000 0.0 
8.625000 -3.000000 0.0 
8.718750 -3.000000 0.0 
8.812500 -3.000000 0.0 
8.906250 -3.000000 0.0 
9.000000 -3.000000 0.0 
9.093750 -3.000000 0.0 
9.187500 -3.000000 0.0 
9.281250 -3.000000 0.0 
9.375000 -3.000000 0.0 
9.468750 -3.000000 0.0 
9.562500 -3.000000 0.0 
9.656250 -3.000000 0.0 
9.750000 -3.000000 0.0 
9.843750 -3.000000 0.0 
9.937500 -3.000000 0.0 
10.031250 -3.000000 0.0 
10.125000 -3.000000 0.0 
10.218750 -3.000000 0.0 
10.312500 -3.000000 0.0 
10.406250 -3.000000 0.0 
10.500000 -3.000000 0.0 
10.593750 -3.000000 0.0 
10.687500 -3.000000 0.0 
10.781250 -3.000000 0.0 
10.875000 -3.000000 0.0 
10.968750 -3.000000 0.0 
11.062500 -3.000000 0.0 
11.156250 -3.000000 0.0 
11.250000 -3.000000 0.0 
11.343750 -3.000000 0.0 
11.437500 -3.000000 0.0 
11.531250 -3.000000 0.0 
11.625000 -3.000000 0.0 
11.718750 -3.000000 0.0 
11.812500 -3.000000 0.0 
11.906250 -3.000000 0.0 
12.000000 -3.000000 0.0 
12.093750 -3.000000 0.0 
12.187500 -3.000000 0.0 
12.281250 -3.000000 0.0 
12.375000 -3.000000 0.0 
12.468750 -3.000000 0.0 
12.562500 -3.000000 0.0 
12.656250 -3.000000 0.0 
12.750000 -3.000000 0.0 
12.843750 -3.000000 0.0 
12.937500 -3.000000 0.0 
13.031250 -3.000000 0.0 
13.125000 -3.000000 0.0 
13.218750 -3.000000 0.0 
13.312500 -3.000000 0.0 
13.406250 -3.000000 0.0 
13.500000 -3.000000 0.0 
13.593750 -3.000000 0.0 
13.687500 -3.000000 0.0 
13.781250 -3.000000 0.0 
13.875000 -3.000000 0.0 
13.968750 -3.000000 0.0 
14.062500 -3.000000 0.0 
14.156250 -3.000000 0.0 
14.250000 -3.000000 0.0 
14.343750 -3.000000 0.0 
14.437500 -3.000000 0.0 
14.531250 -3.000000 0.0 
14.625000 -3.000000 0.0 
14.718750 -3.000000 0.0 
14.812500 -3.000000 0.0 
14.906250 -3.000000 0.0 
15.000000 -3.000000 0.0 
15.093750 -3.000000 0.0 
15.187500 -3.000000 0.0 
15.281250 -3.000000 0.0 
15.375000 -3.000000 0.0 
15.468750 -3.000000 0.0 
15.562500 -3.000000 0.0 
15.656250 -3.000000 0.0 
15.750000 -3.000000 0.0 
15.843750 -3.000000 0.0 
15.937500 -3.000000 0.0 
16.031250 -3.000000 0.0 
16.125000 -3.000000 0.0 
16.218750 -3.000000 0.0 
16.312500 -3.000000 0.0 
16.406250 -3.000000 0.0 
16.500000 -3.000000 0.0 
16.593750 -3.000000 0.0 
16.687500 -3.000000 0.0 
16.781250 -3.000000 0.0 
16.875000 -3.000000 0.0 
16.968750 -3.000000 0.0 
17.062500 -3.000000 0.0 
17.156250 -3.000000 0.0 
17.250000 -3.000000 0.0 
17.343750 -3.000000 0.0 
17.437500 -3.000000 0.0 
17.531250 -3.000000 0.0 
17.625000 -3.000000 0.0 
17.718750 -3.000000 0.0 
17.812500 -3.000000 0.0 
17.906250 -3.000000 0.0 
18.000000 -3.000000 0.0 
18.093750 -3.000000 0.0 
18.187500 -3.000000 0.0 
18.281250 -3.000000 0.0 
18.375000 -3.000000 0.0 
18.468750 -3.000000 0.0 
18.562500 -3.000000 0.0 
18.656250 -3.000000 0.0 
18.750000 -3.000000 0.0 
18.843750 -3.000000 0.0 
18.937500 -3.000000 0.0 
19.031250 -3.000000 0.0 
19.125000 -3.000000 0.0 
19.218750 -3.000000 0.0 
19.312500 -3.000000 0.0 
19.406250 -3.000000 0.0 
19.500000 -3.000000 0.0 
19.593750 -3.000000 0.0 
19.687500 -3.000000 0.0 
19.781250 -3.000000 0.0 
19.875000 -3.000000 0.0 
19.968750 -3.000000 0.0 
20.062500 -3.000000 0.0 
20.156250 -3.000000 0.0 
20.250000 -3.000000 0.0 
20.343750 -3.000000 0.0 
20.437500 -3.000000 0.0 
20.531250 -3.000000 0.0 
20.625000 -3.000000 0.0 
20.718750 -3.000000 0.0 
20.812500 -3.000000 0.0 
20.906250 -3.000000 0.0 
21.000000 -3.000000 0.0 
21.093750 -3.000000 0.0 
21.187500 -3.000000 0.0 
21.281250 -3.000000 0.0 
21.375000 -3.000000 0.0 
21.468750 -3.000000 0.0 
21.562500 -3.000000 0.0 
21.656250 -3.000000 0.0 
21.750000 -3.000000 0.0 
21.843750 -3.000000 0.0 
21.937500 -3.000000 0.0 
22.031250 -3.000000 0.0 
22.125000 -3.000000 0.0 
22.218750 -3.000000 0.0 
22.312500 -3.000000 0.0 
22.406250 -3.000000 0.0 
22.500000 -3.000000 0.0 
22.593750 -3.000000 0.0 
22.687500 -3.000000 0.0 
22.781250 -3.000000 0.0 
22.875000 -3.000000 0.0 
22.968750 -3.000000 0.0 
23.062500 -3.000000 0.0 
23.156250 -3.000000 0.0 
23.250000 -3.000000 0.0 
23.343750 -3.000000 0.0 
23.437500 -3.000000 0.0 
23.531250 -3.000000 0.0 
23.625000 -3.000000 0.0 
23.718750 -3.000000 0.0 
23.812500 -3.000000 0.0 
23.906250 -3.000000 0.0 
24.000000 -3.000000 0.0 
0.000000 -2.625000 0.0 
0.093750 -2.625000 0.0 
0.187500 -2.625000 0.0 
0.281250 -2.625000 0.0 
0.375000 -2.625000 0.0 
0.468750 -2.625000 0.0 
0.562500 -2.625000 0.0 
0.656250 -2.625000 0.0 
0.750000 -2.625000 0.0 
0.843750 -2.625000 0.0 
0.937500 -2.625000 0.0 
1.031250 -2.625000 0.0 
1.125000 -2.625000 0.0 
1.218750 -2.625000 0.0 
1.312500 -2.625000 0.0 
1.406250 -2.625000 0.0 
1.500000 -2.625000 0.0 
1.593750 -2.625000 0.0 
1.687500 -2.625000 0.0 
1.781250 -2.625000 0.0 
1.875000 -2.625000 0.0 
1.968750 -2.625000 0.0 
2.062500 -2.625000 0.0 
2.156250 -2.625000 0.0 
2.250000 -2.625000 0.0 
2.343750 -2.625000 0.0 
2.437500 -2.625000 0.0 
2.531250 -2.625000 0.0 
2.625000 -2.625000 0.0 
2.718750 -2.625000 0.0 
2.812500 -2.625000 0.0 
2.906250 -2.625000 0.0 
3.000000 -2.625000 0.0 
3.093750 -2.625000 0.0 
3.187500 -2.625000 0.0 
3.281250 -2.625000 0.0 
3.375000 -2.625000 0.0 
3.468750 -2.625000 0.0 
3.562500 -2.625000 0.0 
3.656250 -2.625000 0.0 
3.750000 -2.625000 0.0 
3.843750 -2.625000 0.0 
3.937500 -2.625000 0.0 
4.031250 -2.625000 0.0 
4.125000 -2.625000 0.0 
4.218750 -2.625000 0.0 
4.312500 -2.625000 0.0 
4.406250 -2.625000 0.0 
4.500000 -2.625000 0.0 
4.593750 -2.625000 0.0 
4.687500 -2.625000 0.0 
4.781250 -2.625000 0.0 
4.875000 -2.625000 0.0 
4.968750 -2.625000 0.0 
5.062500 -2.625000 0.0 
5.156250 -2.625000 0.0 
5.250000 -2.625000 0.0 
5.343750 -2.625000 0.0 
5.437500 -2.625000 0.0 
5.531250 -2.625000 0.0 
5.625000 -2.625000 0.0 
5.718750 -2.625000 0.0 
5.812500 -2.625000 0.0 
5.906250 -2.625000 0.0 
6.000000 -2.625000 0.0 
6.093750 -2.625000 0.0 
6.187500 -2.625000 0.0 
6.281250 -2.625000 0.0 
6.375000 -2.625000 0.0 
6.468750 -2.625000 0.0 
6.562500 -2.625000 0.0 
6.656250 -2.625000 0.0 
6.750000 -2.625000 0.0 
6.843750 -2.625000 0.0 
6.937500 -2.625000 0.0 
7.031250 -2.625000 0.0 
7.125000 -2.625000 0.0 
7.218750 -2.625000 0.0 
7.312500 -2.625000 0.0 
7.406250 -2.625000 0.0 
7.500000 -2.625000 0.0 
7.593750 -2.625000 0.0 
7.687500 -2.625000 0.0 
7.781250 -2.625000 0.0 
7.875000 -2.625000 0.0 
7.968750 -2.625000 0.0 
8.062500 -2.625000 0.0 
8.156250 -2.625000 0.0 
8.250000 -2.625000 0.0 
8.343750 -2.625000 0.0 
8.437500 -2.625000 0.0 
8.531250 -2.625000 0.0 
8.625000 -2.625000 0.0 
8.718750 -2.625000 0.0 
8.812500 -2.625000 0.0 
8.906250 -2.625000 0.0 
9.000000 -2.625000 0.0 
9.093750 -2.625000 0.0 
9.187500 -2.625000 0.0 
9.281250 -2.625000 0.0 
9.375000 -2.625000 0.0 
9.468750 -2.625000 0.0 
9.562500 -2.625000 0.0 
9.656250 -2.625000 0.0 
9.750000 -2.625000 0.0 
9.843750 -2.625000 0.0 
9.937500 -2.625000 0.0 
10.031250 -2.625000 0.0 
10.125000 -2.625000 0.0 
10.218750 -2.625000 0.0 
10.312500 -2.625000 0.0 
10.406250 -2.625000 0.0 
10.500000 -2.625000 0.0 
10.593750 -2.625000 0.0 
10.687500 -2.625000 0.0 
10.781250 -2.625000 0.0 
10.875000 -2.625000 0.0 
10.968750 -2.625000 0.0 
11.062500 -2.625000 0.0 
11.156250 -2.625000 0.0 
11.250000 -2.625000 0.0 
11.343750 -2.625000 0.0 
11.437500 -2.625000 0.0 
11.531250 -2.625000 0.0 
11.625000 -2.625000 0.0 
11.718750 -2.625000 0.0 
11.812500 -2.625000 0.0 
11.906250 -2.625000 0.0 
12.000000 -2.625000 0.0 
12.093750 -2.625000 0.0 
12.187500 -2.625000 0.0 
12.281250 -2.625000 0.0 
12.375000 -2.625000 0.0 
12.468750 -2.625000 0.0 
12.562500 -2.625000 0.0 
12.656250 -2.625000 0.0 
12.750000 -2.625000 0.0 
12.843750 -2.625000 0.0 
12.937500 -2.625000 0.0 
13.031250 -2.625000 0.0 
13.125000 -2.625000 0.0 
13.218750 -2.625000 0.0 
13.312500 -2.625000 0.0 
[...]
<PointData  Vectors="sigma"> 
<DataArray  type="Float64"  Name="sigma" NumberOfComponents="3" format="ascii"> 
-8092.163801   -77.649140   -72.184273   
-8007.941725   -2.496890   -8.609568   
-7973.318643   3.530850   0.407336   
-7953.670865   2.453204   1.843511   
-7937.616925   1.420353   1.294367   
-7922.348215   0.614164   0.764050   
-7906.906641   0.247548   0.367260   
-7891.323799   0.059755   0.174026   
-7875.630187   -0.003806   0.073864   
-7859.909304   -0.026628   0.033023   
-7844.184087   -0.027567   0.014253   
-7828.471499   -0.023876   0.007108   
-7812.772262   -0.018521   0.003775   
-7797.086357   -0.014012   0.002390   
-7781.411416   -0.010351   0.001628   
-7765.745703   -0.007633   0.001222   
-7750.087500   -0.005618   0.000951   
-7734.435518   -0.004158   0.000771   
-7718.788667   -0.003099   0.000636   
-7703.146081   -0.002333   0.000532   
-7687.507038   -0.001776   0.000448   
-7671.870941   -0.001370   0.000379   
-7656.237291   -0.001071   0.000322   
-7640.605670   -0.000849   0.000273   
-7624.975725   -0.000683   0.000231   
-7609.347162   -0.000556   0.000196   
-7593.719732   -0.000459   0.000165   
-7578.093225   -0.000383   0.000139   
-7562.467465   -0.000323   0.000117   
-7546.842304   -0.000275   0.000099   
-7531.217618   -0.000236   0.000083   
-7515.593304   -0.000204   0.000069   
-7499.969273   -0.000177   0.000057   
-7484.345455   -0.000154   0.000047   
-7468.721789   -0.000135   0.000039   
-7453.098226   -0.000119   0.000032   
-7437.474725   -0.000105   0.000026   
-7421.851254   -0.000093   0.000021   
-7406.227786   -0.000082   0.000016   
-7390.604300   -0.000073   0.000013   
-7374.980780   -0.000065   0.000010   
-7359.357213   -0.000058   0.000007   
-7343.733589   -0.000051   0.000005   
-7328.109903   -0.000046   0.000003   
-7312.486148   -0.000041   0.000002   
-7296.862324   -0.000036   0.000001   
-7281.238428   -0.000032   -0.000000   
-7265.614460   -0.000029   -0.000001   
-7249.990421   -0.000025   -0.000001   
-7234.366314   -0.000023   -0.000002   
-7218.742140   -0.000020   -0.000002   
-7203.117901   -0.000018   -0.000002   
-7187.493601   -0.000016   -0.000003   
-7171.869244   -0.000014   -0.000003   
-7156.244831   -0.000012   -0.000003   
-7140.620368   -0.000011   -0.000003   
-7124.995856   -0.000009   -0.000003   
-7109.371300   -0.000008   -0.000003   
-7093.746702   -0.000007   -0.000003   
-7078.122065   -0.000006   -0.000002   
-7062.497394   -0.000006   -0.000002   
-7046.872690   -0.000005   -0.000002   
-7031.247956   -0.000004   -0.000002   
-7015.623195   -0.000004   -0.000002   
-6999.998409   -0.000003   -0.000002   
-6984.373600   -0.000003   -0.000002   
-6968.748771   -0.000002   -0.000002   
-6953.123923   -0.000002   -0.000001   
-6937.499058   -0.000002   -0.000001   
-6921.874178   -0.000001   -0.000001   
-6906.249285   -0.000001   -0.000001   
-6890.624379   -0.000001   -0.000001   
-6874.999462   -0.000001   -0.000001   
-6859.374535   -0.000001   -0.000001   
-6843.749599   -0.000001   -0.000001   
-6828.124656   -0.000001   -0.000001   
-6812.499705   -0.000000   -0.000001   
-6796.874749   -0.000000   -0.000001   
-6781.249786   -0.000000   -0.000001   
-6765.624819   -0.000000   -0.000000   
-6749.999848   -0.000000   -0.000000   
-6734.374872   -0.000000   -0.000000   
-6718.749894   -0.000000   -0.000000   
-6703.124912   -0.000000   -0.000000   
-6687.499928   -0.000000   -0.000000   
-6671.874941   -0.000000   -0.000000   
-6656.249953   -0.000000   -0.000000   
-6640.624963   -0.000000   -0.000000   
-6624.999971   0.000000   -0.000000   
-6609.374978   0.000000   -0.000000   
-6593.749984   0.000000   -0.000000   
-6578.124989   0.000000   -0.000000   
-6562.499993   0.000000   -0.000000   
-6546.874997   0.000000   -0.000000   
-6531.249999   0.000000   -0.000000   
-6515.625002   0.000000   -0.000000   
-6500.000004   0.000000   -0.000000   
-6484.375005   0.000000   -0.000000   
-6468.750007   0.000000   -0.000000   
-6453.125008   0.000000   -0.000000   
-6437.500008   0.000000   -0.000000   
-6421.875009   0.000000   -0.000000   
-6406.250010   0.000000   -0.000000   
-6390.625010   0.000000   -0.000000   
-6375.000010   0.000000   -0.000000   
-6359.375011   0.000000   -0.000000   
-6343.750011   0.000000   -0.000000   
-6328.125011   0.000000   -0.000000   
-6312.500011   0.000000   0.000000   
-6296.875011   0.000000   0.000000   
-6281.250011   0.000000   0.000000   
-6265.625011   0.000000   0.000000   
-6250.000011   0.000000   0.000000   
-6234.375011   0.000000   0.000000   
-6218.750011   0.000000   0.000000   
-6203.125010   0.000000   0.000000   
-6187.500010   0.000000   0.000000   
-6171.875009   0.000000   0.000000   
-6156.250008   0.000000   0.000000   
-6140.625006   0.000000   0.000000   
-6125.000005   0.000000   0.000000   
-6109.375003   0.000000   0.000000   
-6093.750000   0.000000   0.000000   
-6078.124997   0.000000   0.000000   
-6062.499993   0.000000   0.000000   
-6046.874988   0.000000   0.000000   
-6031.249982   0.000000   0.000000   
-6015.624975   0.000000   0.000000   
-5999.999967   0.000000   0.000000   
-5984.374957   0.000000   0.000000   
-5968.749945   -0.000000   0.000000   
-5953.124931   -0.000000   0.000000   
-5937.499915   -0.000000   0.000000   
-5921.874896   -0.000000   0.000000   
-5906.249874   -0.000000   0.000000   
-5890.624849   -0.000000   0.000000   
-5874.999819   -0.000000   0.000001   
-5859.374784   -0.000000   0.000001   
-5843.749745   -0.000000   0.000001   
-5828.124699   -0.000000   0.000001   
-5812.499646   -0.000001   0.000001   
-5796.874586   -0.000001   0.000001   
-5781.249517   -0.000001   0.000001   
-5765.624439   -0.000001   0.000001   
-5749.999349   -0.000001   0.000001   
-5734.374248   -0.000001   0.000001   
-5718.749133   -0.000002   0.000001   
-5703.124002   -0.000002   0.000002   
-5687.498855   -0.000002   0.000002   
-5671.873689   -0.000002   0.000002   
-5656.248503   -0.000003   0.000002   
-5640.623293   -0.000003   0.000002   
-5624.998058   -0.000004   0.000002   
-5609.372795   -0.000004   0.000002   
-5593.747501   -0.000005   0.000003   
-5578.122173   -0.000006   0.000003   
-5562.496809   -0.000007   0.000003   
-5546.871404   -0.000008   0.000003   
-5531.245955   -0.000009   0.000003   
-5515.620459   -0.000010   0.000003   
-5499.994912   -0.000011   0.000003   
-5484.369310   -0.000013   0.000003   
-5468.743648   -0.000015   0.000003   
-5453.117923   -0.000017   0.000003   
-5437.492131   -0.000019   0.000003   
-5421.866268   -0.000021   0.000003   
-5406.240331   -0.000024   0.000002   
-5390.614316   -0.000027   0.000002   
-5374.988220   -0.000030   0.000001   
-5359.362041   -0.000033   0.000000   
-5343.735779   -0.000037   -0.000001   
-5328.109433   -0.000041   -0.000002   
-5312.483005   -0.000046   -0.000004   
-5296.856499   -0.000051   -0.000006   
-5281.229919   -0.000057   -0.000009   
-5265.603274   -0.000063   -0.000012   
-5249.976577   -0.000069   -0.000016   
-5234.349842   -0.000076   -0.000021   
-5218.723092   -0.000083   -0.000026   
-5203.096351   -0.000091   -0.000032   
-5187.469653   -0.000099   -0.000040   
-5171.843039   -0.000108   -0.000049   
-5156.216561   -0.000117   -0.000059   
-5140.590279   -0.000127   -0.000071   
-5124.964268   -0.000136   -0.000084   
-5109.338617   -0.000146   -0.000100   
-5093.713434   -0.000157   -0.000118   
-5078.088843   -0.000167   -0.000140   
-5062.464995   -0.000176   -0.000164   
-5046.842067   -0.000186   -0.000191   
-5031.220263   -0.000194   -0.000223   
-5015.599826   -0.000201   -0.000259   
-4999.981037   -0.000207   -0.000300   
-4984.364221   -0.000210   -0.000347   
-4968.749757   -0.000211   -0.000400   
-4953.138080   -0.000208   -0.000460   
-4937.529695   -0.000201   -0.000528   
-4921.925179   -0.000189   -0.000605   
-4906.325195   -0.000170   -0.000691   
-4890.730504   -0.000142   -0.000788   
-4875.141970   -0.000105   -0.000897   
-4859.560584   -0.000057   -0.001019   
-4843.987471   0.000006   -0.001156   
-4828.423906   0.000085   -0.001309   
-4812.871340   0.000184   -0.001479   
-4797.331410   0.000306   -0.001668   
-4781.805969   0.000455   -0.001879   
-4766.297104   0.000636   -0.002113   
-4750.807168   0.000854   -0.002372   
-4735.338802   0.001115   -0.002659   
-4719.894975   0.001427   -0.002976   
-4704.479009   0.001797   -0.003326   
-4689.094623   0.002236   -0.003710   
-4673.745973   0.002754   -0.004133   
-4658.437690   0.003363   -0.004596   
-4643.174933   0.004079   -0.005104   
-4627.963437   0.004917   -0.005659   
-4612.809569   0.005897   -0.006265   
-4597.720386   0.007041   -0.006924   
-4582.703697   0.008375   -0.007641   
-4567.768128   0.009930   -0.008419   
-4552.923197   0.011741   -0.009262   
-4538.179387   0.013850   -0.010172   
-4523.548224   0.016304   -0.011153   
-4509.042361   0.019164   -0.012208   
-4494.675669   0.022496   -0.013341   
-4480.463320   0.026386   -0.014553   
-4466.421890   0.030933   -0.015846   
-4452.569451   0.036259   -0.017224   
-4438.925672   0.042516   -0.018685   
-4425.511920   0.049891   -0.020230   
-4412.351360   0.058617   -0.021858   
-4399.469056   0.068991   -0.023565   
-4386.892064   0.081391   -0.025346   
-4374.649521   0.096306   -0.027190   
-4362.772725   0.114369   -0.029083   
-4351.295191   0.136412   -0.030999   
-4340.252686   0.163531   -0.032894   
-4329.683221   0.197176   -0.034695   
-4319.626963   0.239276   -0.036271   
-4310.126087   0.292365   -0.037412   
-4301.224340   0.359824   -0.037704   
-4292.966633   0.445927   -0.036506   
-4285.397638   0.556302   -0.032347   
-4278.561567   0.696966   -0.022854   
-4272.498721   0.875153   -0.001321   
-4267.251549   1.091408   0.044257   
-4262.860466   1.340436   0.150410   
-4259.413476   1.564374   0.383799   
-4257.047906   1.655985   0.932746   
-4256.172153   1.234303   2.096742   
-4257.307285   -0.248772   4.596894   
-4261.411960   -4.326080   9.080179   
-4267.128865   -12.062906   16.419786   
-4266.737487   -25.280113   22.267395   
-4221.047252   -27.156004   8.745597   
-3998.910769   145.545843   -162.167149   
-6987.224047   -20.338192   -56.938410   
-6981.866160   -17.297706   -59.336569   
-6970.962915   -11.343493   -62.368295   
-6959.268590   -6.692752   -62.789314   
-6946.567045   -3.982488   -62.163962   
-6933.227806   -2.452343   -61.365497   
-6919.550223   -1.569182   -60.680266   
-6905.728213   -1.042650   -60.160493   
-6891.860490   -0.715279   -59.781106   
-6877.994646   -0.504494   -59.505781   
-6864.148599   -0.364331   -59.303690   
-6850.327507   -0.268766   -59.152968   
-6836.530488   -0.202088   -59.038608   
-6822.754757   -0.154609   -58.950505   
-6808.997020   -0.120120   -58.881702   
-6795.254226   -0.094592   -58.827349   
-6781.523722   -0.075351   -58.783979   
-6767.803306   -0.060606   -58.749073   
-6754.091170   -0.049132   -58.720772   
-6740.385849   -0.040083   -58.697681   
-6726.686154   -0.032862   -58.678744   
-6712.991118   -0.027041   -58.663148   
-6699.299954   -0.022308   -58.650262   
-6685.612019   -0.018432   -58.639589   
-6671.926783   -0.015238   -58.630735   
-6658.243809   -0.012595   -58.623385   
-6644.562732   -0.010397   -58.617283   
-6630.883251   -0.008565   -58.612221   
-6617.205111   -0.007035   -58.608028   
-6603.528099   -0.005754   -58.604564   
-6589.852037   -0.004681   -58.601710   
-6576.176771   -0.003783   -58.599368   
-6562.502174   -0.003031   -58.597458   
-6548.828137   -0.002402   -58.595909   
-6535.154569   -0.001877   -58.594665   
-6521.481389   -0.001439   -58.593674   
-6507.808533   -0.001077   -58.592897   
-6494.135945   -0.000777   -58.592297   
-6480.463575   -0.000530   -58.591845   
-6466.791385   -0.000328   -58.591514   
-6453.119340   -0.000165   -58.591285   
-6439.447411   -0.000034   -58.591138   
-6425.775574   0.000070   -58.591058   
-6412.103809   0.000152   -58.591032   
-6398.432099   0.000214   -58.591049   
-6384.760431   0.000260   -58.591099   
-6371.088791   0.000293   -58.591176   
-6357.417172   0.000316   -58.591272   
-6343.745565   0.000329   -58.591382   
-6330.073963   0.000335   -58.591501   
-6316.402362   0.000335   -58.591627   
-6302.730758   0.000331   -58.591755   
-6289.059148   0.000323   -58.591884   
-6275.387528   0.000313   -58.592012   
-6261.715899   0.000300   -58.592137   
-6248.044257   0.000286   -58.592258   
-6234.372603   0.000271   -58.592375   
-6220.700937   0.000255   -58.592486   
-6207.029257   0.000239   -58.592591   
-6193.357564   0.000223   -58.592691   
-6179.685858   0.000208   -58.592784   
-6166.014139   0.000193   -58.592871   
-6152.342409   0.000178   -58.592952   
-6138.670667   0.000164   -58.593027   
-6124.998914   0.000150   -58.593097   
-6111.327150   0.000138   -58.593161   
-6097.655377   0.000126   -58.593220   
-6083.983594   0.000115   -58.593273   
-6070.311803   0.000104   -58.593323   
-6056.640005   0.000095   -58.593367   
-6042.968199   0.000086   -58.593408   
-6029.296386   0.000077   -58.593445   
-6015.624567   0.000070   -58.593479   
-6001.952742   0.000063   -58.593509   
-5988.280912   0.000056   -58.593536   
-5974.609077   0.000050   -58.593561   
-5960.937239   0.000045   -58.593583   
-5947.265396   0.000040   -58.593603   
-5933.593549   0.000036   -58.593620   
-5919.921700   0.000032   -58.593636   
-5906.249847   0.000028   -58.593650   
-5892.577992   0.000025   -58.593663   
-5878.906135   0.000022   -58.593674   
-5865.234276   0.000020   -58.593683   
-5851.562414   0.000017   -58.593692   
-5837.890551   0.000015   -58.593700   
-5824.218687   0.000013   -58.593707   
-5810.546821   0.000012   -58.593712   
-5796.874954   0.000010   -58.593718   
-5783.203086   0.000009   -58.593722   
-5769.531218   0.000008   -58.593726   
-5755.859348   0.000007   -58.593730   
-5742.187478   0.000006   -58.593733   
-5728.515607   0.000005   -58.593735   
-5714.843735   0.000004   -58.593738   
-5701.171863   0.000004   -58.593739   
-5687.499990   0.000003   -58.593741   
-5673.828118   0.000003   -58.593743   
-5660.156245   0.000002   -58.593744   
-5646.484371   0.000002   -58.593745   
-5632.812497   0.000002   -58.593746   
-5619.140623   0.000001   -58.593747   
-5605.468749   0.000001   -58.593747   
-5591.796875   0.000001   -58.593748   
-5578.125001   0.000001   -58.593748   
-5564.453126   0.000001   -58.593749   
-5550.781251   0.000001   -58.593749   
-5537.109377   0.000001   -58.593749   
-5523.437502   0.000001   -58.593750   
-5509.765627   0.000001   -58.593750   
-5496.093751   0.000001   -58.593751   
-5482.421876   0.000001   -58.593751   
-5468.750000   0.000001   -58.593752   
-5455.078125   0.000001   -58.593752   
-5441.406249   0.000001   -58.593753   
-5427.734373   0.000002   -58.593754   
-5414.062497   0.000002   -58.593755   
-5400.390620   0.000002   -58.593756   
-5386.718743   0.000003   -58.593757   
-5373.046866   0.000003   -58.593758   
-5359.374989   0.000004   -58.593760   
-5345.703111   0.000004   -58.593762   
-5332.031232   0.000005   -58.593765   
-5318.359353   0.000006   -58.593767   
-5304.687473   0.000007   -58.593770   
-5291.015593   0.000008   -58.593774   
-5277.343711   0.000009   -58.593778   
-5263.671829   0.000011   -58.593783   
-5249.999945   0.000012   -58.593789   
-5236.328061   0.000014   -58.593795   
-5222.656174   0.000016   -58.593802   
-5208.984286   0.000019   -58.593811   
-5195.312397   0.000021   -58.593820   
-5181.640505   0.000024   -58.593831   
-5167.968611   0.000027   -58.593843   
-5154.296714   0.000031   -58.593856   
-5140.624815   0.000035   -58.593872   
-5126.952912   0.000039   -58.593889   
-5113.281006   0.000044   -58.593908   
-5099.609096   0.000050   -58.593930   
-5085.937181   0.000056   -58.593954   
-5072.265262   0.000062   -58.593981   
-5058.593337   0.000069   -58.594012   
-5044.921407   0.000077   -58.594045   
-5031.249470   0.000086   -58.594083   
-5017.577525   0.000096   -58.594124   
-5003.905574   0.000106   -58.594170   
-4990.233613   0.000117   -58.594221   
-4976.561644   0.000129   -58.594276   
-4962.889665   0.000142   -58.594338   
-4949.217675   0.000156   -58.594404   
-4935.545673   0.000171   -58.594478   
-4921.873659   0.000187   -58.594557   
-4908.201633   0.000204   -58.594644   
-4894.529592   0.000221   -58.594738   
-4880.857536   0.000239   -58.594839   
-4867.185466   0.000258   -58.594947   
-4853.513379   0.000278   -58.595064   
-4839.841276   0.000297   -58.595188   
-4826.169156   0.000317   -58.595319   
-4812.497018   0.000336   -58.595458   
-4798.824865   0.000355   -58.595603   
-4785.152694   0.000372   -58.595755   
-4771.480508   0.000387   -58.595911   
-4757.808308   0.000399   -58.596070   
-4744.136096   0.000407   -58.596231   
-4730.463874   0.000411   -58.596390   
-4716.791646   0.000408   -58.596546   
-4703.119416   0.000397   -58.596693   
-4689.447191   0.000377   -58.596827   
-4675.774978   0.000344   -58.596943   
-4662.102785   0.000297   -58.597034   
-4648.430625   0.000232   -58.597091   
-4634.758509   0.000146   -58.597104   
-4621.086455   0.000034   -58.597062   
-4607.414482   -0.000107   -58.596950   
-4593.742612   -0.000284   -58.596753   
-4580.070874   -0.000503   -58.596451   
-4566.399299   -0.000770   -58.596022   
-4552.727926   -0.001095   -58.595440   
-4539.056798   -0.001486   -58.594675   
-4525.385967   -0.001954   -58.593691   
-4511.715494   -0.002512   -58.592448   
-4498.045448   -0.003173   -58.590900   
-4484.375911   -0.003953   -58.588993   
-4470.706975   -0.004870   -58.586666   
-4457.038747   -0.005944   -58.583848   
-4443.371351   -0.007196   -58.580460   
-4429.704928   -0.008654   -58.576411   
-4416.039640   -0.010344   -58.571596   
-4402.375669   -0.012300   -58.565898   
-4388.713225   -0.014557   -58.559183   
-4375.052547   -0.017155   -58.551301   
-4361.393904   -0.020138   -58.542082   
-4347.737602   -0.023556   -58.531333   
-4334.083985   -0.027465   -58.518840   
-4320.433442   -0.031926   -58.504360   
-4306.786412   -0.037006   -58.487622   
-4293.143386   -0.042781   -58.468323   
-4279.504916   -0.049332   -58.446124   
-4265.871619   -0.056751   -58.420647   
-4252.244186   -0.065137   -58.391472   
-4238.623384   -0.074601   -58.358133   
-4225.010072   -0.085262   -58.320113   
-4211.405199   -0.097250   -58.276839   
-4197.809821   -0.110708   -58.227680   
-4184.225104   -0.125789   -58.171940   
-4170.652336   -0.142662   -58.108852   
-4157.092936   -0.161507   -58.037577   
-4143.548463   -0.182518   -57.957195   
-4130.020627   -0.205903   -57.866701   
-4116.511296   -0.231886   -57.765001   
-4103.022509   -0.260704   -57.650905   
-4089.556483   -0.292608   -57.523124   
-4076.115620   -0.327864   -57.380265   
-4062.702515   -0.366751   -57.220830   
-4049.319960   -0.409559   -57.043208   
-4035.970947   -0.456588   -56.845681   
-4022.658669   -0.508147   -56.626419   
-4009.386511   -0.564548   -56.383486   
-3996.158044   -0.626102   -56.114841   
-3982.977008   -0.693117   -55.818353   
-3969.847284   -0.765887   -55.491810   
-3956.772863   -0.844683   -55.132938   
-3943.757795   -0.929742   -54.739427   
-3930.806128   -1.021253   -54.308966   
-3917.921818   -1.119337   -53.839290   
-3905.108625   -1.224019   -53.328233   
-3892.369973   -1.335201   -52.773811   
-3879.708768   -1.452619   -52.174320   
-3867.127173   -1.575787   -51.528461   
-3854.626324   -1.703930   -50.835507   
-3842.205966   -1.835890   -50.095518   
-3829.864000   -1.969996   -49.309614   
-3817.595909   -2.103905   -48.480339   
-3805.394039   -2.234363   -47.612126   
-3793.246688   -2.356888   -46.711923   
-3781.136965   -2.465326   -45.790009   
-3769.041349   -2.551214   -44.861090   
-3756.927883   -2.602871   -43.945770   
-3744.753913   -2.604076   -43.072553   
-3732.463279   -2.532121   -42.280570   