<?xml version="1.0"?> 
<VTKFile type="UnstructuredGrid" version="0.1"> 
<UnstructuredGrid> 
<Piece NumberOfPoints="8000" NumberOfCells="6480"> 
<PointData Scalars="u">
<DataArray type="Float32" Name="u" format="ascii" NumberOfComponents="1"> 
-0.000360574 0.0221146 0.04533 0.0692844 0.0939764 0.119404 0.145565 0.172458 0.200079 0.228426 -0.000376223 0.0223043 0.0457383 0.0699235 0.0948575 0.120537 0.14696 0.174122 0.202019 0.230649 -0.000391204 0.0224951 0.0461485 0.0705658 0.0957432 0.121677 0.148363 0.175796 0.203971 0.232883 -0.000405508 0.022687 0.0465608 0.0712113 0.0966337 0.122823 0.149773 0.177479 0.205934 0.235131 -0.000419127 0.0228801 0.0469752 0.0718602 0.0975291 0.123975 0.151192 0.179172 0.207908 0.237391 -0.000432051 0.0230746 0.0473919 0.0725127 0.0984295 0.125135 0.152619 0.180875 0.209893 0.239663 -0.000444273 0.0232703 0.0478109 0.0731688 0.0993351 0.1263 0.154055 0.182588 0.21189 0.241948 -0.000455783 0.0234675 0.0482324 0.0738287 0.100246 0.127473 0.155499 0.184311 0.213898 0.244246 -0.000466572 0.0236662 0.0486565 0.0744925 0.101162 0.128653 0.156951 0.186044 0.215917 0.246556 -0.000476633 0.0238665 0.0490832 0.0751604 0.102084 0.12984 0.158413 0.187787 0.217948 0.248878 2.59955 2.72553 2.83791 2.93117 2.99997 3.03918 3.04395 3.00973 2.93233 2.80795 2.65037 2.78074 2.8978 2.99576 3.06899 3.11209 3.11993 3.08771 3.01099 2.88573 2.70096 2.83581 2.95769 3.06053 3.13839 3.18558 3.1967 3.16667 3.0908 2.96481 2.75125 2.89066 3.01752 3.12541 3.2081 3.2596 3.27422 3.24659 3.17175 3.04518 2.80116 2.94524 3.0772 3.19032 3.27805 3.33409 3.35242 3.3274 3.2538 3.1268 2.85063 2.99946 3.13667 3.25521 3.34818 3.40897 3.43125 3.40908 3.33691 3.20967 2.89959 3.05326 3.19586 3.31998 3.41842 3.4842 3.51067 3.49156 3.42104 3.29376 2.94797 3.10656 3.25468 3.38459 3.4887 3.5597 3.59061 3.57481 3.50618 3.37905 2.9957 3.15929 3.31308 3.44895 3.55896 3.63543 3.67102 3.65879 3.59227 3.46551 3.04271 3.21138 3.37098 3.513 3.62912 3.71131 3.75184 3.74344 3.6793 3.55313 3.04271 3.21138 3.37098 3.513 3.62912 3.71131 3.75184 3.74344 3.6793 3.55313 3.08893 3.26276 3.42829 3.57665 3.69913 3.78728 3.83303 3.82873 3.76721 3.64188 3.13426 3.31331 3.48493 3.63982 3.76888 3.86326 3.91451 3.91458 3.85598 3.73174 3.1786 3.36295 3.54079 3.70241 3.83828 3.93917 3.9962 4.00095 3.94554 3.82266 3.22184 3.41156 3.59576 3.76431 3.90725 4.01492 4.07803 4.08777 4.03586 3.91463 3.2639 3.45904 3.64974 3.82541 3.97568 4.09042 4.15993 4.17498 4.12688 4.00761 3.30465 3.50528 3.70262 3.88563 4.04347 4.16559 4.24182 4.26251 4.21857 4.10157 3.34402 3.55019 3.7543 3.94486 4.11055 4.24034 4.32363 4.35031 4.31088 4.19648 3.38189 3.59365 3.80468 4.003 4.1768 4.31459 4.40528 4.43832 4.40375 4.29231 3.41816 3.63556 3.85365 4.05994 4.24214 4.38825 4.48671 4.52647 4.49714 4.38903 0.973001 0.999787 1.01768 1.02609 1.02449 1.0124 0.989433 0.955283 0.909709 0.852549 1.00762 1.03586 1.05493 1.06419 1.06307 1.05106 1.02774 0.992749 0.945824 0.886776 1.04298 1.07272 1.09302 1.10319 1.10261 1.09072 1.06706 1.03124 0.982951 0.921986 1.07907 1.11038 1.13197 1.1431 1.1431 1.13137 1.1074 1.07075 1.0211 0.958197 1.11589 1.14882 1.17176 1.18392 1.18455 1.17302 1.14877 1.11132 1.0603 0.995425 1.15343 1.18805 1.21241 1.22564 1.22697 1.21568 1.19118 1.15294 1.10055 1.03369 1.19169 1.22806 1.2539 1.26828 1.27035 1.25936 1.23464 1.19563 1.14187 1.073 1.23066 1.26886 1.29624 1.31183 1.31471 1.30406 1.27917 1.23941 1.18428 1.11338 1.27034 1.31043 1.33943 1.3563 1.36005 1.3498 1.32477 1.28429 1.22779 1.15484 1.31073 1.35277 1.38347 1.40168 1.40636 1.39657 1.37145 1.33027 1.27242 1.1974 1.31073 1.35277 1.38347 1.40168 1.40636 1.39657 1.37145 1.33027 1.27242 1.1974 1.35181 1.39588 1.42834 1.44798 1.45367 1.44439 1.41922 1.37738 1.31818 1.24108 1.39358 1.43975 1.47405 1.49519 1.50196 1.49325 1.46809 1.42561 1.36508 1.28589 1.43602 1.48437 1.52059 1.5433 1.55122 1.54316 1.51806 1.47499 1.41314 1.33185 1.47912 1.52971 1.56794 1.59231 1.60146 1.59412 1.56914 1.52551 1.46236 1.37897 1.52285 1.57577 1.61608 1.64221 1.65268 1.64612 1.62132 1.57719 1.51276 1.42726 1.56721 1.62253 1.66502 1.69299 1.70486 1.69917 1.67462 1.63002 1.56435 1.47674 1.61218 1.66999 1.71474 1.74463 1.758 1.75327 1.72904 1.68403 1.61714 1.52742 1.65774 1.71811 1.76522 1.79714 1.8121 1.80841 1.78458 1.73922 1.67114 1.57931 1.70388 1.7669 1.81646 1.85051 1.86715 1.8646 1.84124 1.79559 1.72636 1.63244 -0.000274393 0.0299714 0.0617544 0.0949603 0.129473 0.165173 0.20194 0.23965 0.278179 0.317397 -0.000250768 0.0302074 0.0622483 0.0957492 0.130585 0.166628 0.203749 0.241814 0.280689 0.320238 -0.00022668 0.0304412 0.0627404 0.0965392 0.131703 0.168095 0.205575 0.244001 0.283228 0.323109 -0.000204066 0.0306713 0.0632298 0.0973298 0.132827 0.169573 0.207419 0.246212 0.285796 0.326013 -0.000184864 0.0308965 0.0637157 0.0981207 0.133956 0.171064 0.209282 0.248448 0.288394 0.32895 -0.00017101 0.0311152 0.0641971 0.0989113 0.135091 0.172567 0.211165 0.25071 0.291023 0.331922 -0.000164441 0.0313262 0.0646732 0.0997013 0.136232 0.174082 0.213068 0.252999 0.293685 0.33493 -0.000167094 0.0315279 0.065143 0.10049 0.137378 0.175611 0.214991 0.255316 0.29638 0.337974 -0.000180907 0.0317191 0.0656056 0.101277 0.13853 0.177153 0.216936 0.257661 0.299109 0.341056 -0.000207815 0.0318983 0.0660602 0.102063 0.139687 0.178709 0.218902 0.260035 0.301874 0.344178 0.000200966 0.0101453 0.0203133 0.0307071 0.0413286 0.0521799 0.0632628 0.0745792 0.0861309 0.0979198 0.000196374 0.0102848 0.0205992 0.0311422 0.0419163 0.0529237 0.0641669 0.0756481 0.0873697 0.0993338 0.000193119 0.0104255 0.0208868 0.0315798 0.0425075 0.0536724 0.0650775 0.0767252 0.0886184 0.10076 0.000191002 0.0105674 0.021176 0.03202 0.0431023 0.0544261 0.0659946 0.0778106 0.0898771 0.102197 0.000189822 0.0107105 0.021467 0.0324626 0.0437008 0.0551849 0.0669183 0.0789041 0.0911458 0.103646 0.000189383 0.0108547 0.0217597 0.032908 0.0443032 0.0559489 0.0678486 0.080006 0.0924244 0.105107 0.000189484 0.011 0.0220543 0.0333562 0.0449095 0.0567181 0.0687857 0.0811161 0.0937129 0.10658 0.000189927 0.0111462 0.0223506 0.0338072 0.0455198 0.0574927 0.0697296 0.0822345 0.0950113 0.108064 0.000190514 0.0112934 0.0226488 0.0342611 0.0461343 0.0582727 0.0706803 0.0833612 0.0963195 0.109559 0.000191044 0.0114414 0.022949 0.0347181 0.0467531 0.0590582 0.0716378 0.0844962 0.0976375 0.111066 1.67551 1.88331 2.08099 2.27121 2.45678 2.64059 2.82562 3.01488 3.21139 3.41816 1.68862 1.89725 2.09523 2.28543 2.47082 2.65449 2.8396 3.02935 3.22697 3.43566 1.70173 1.91115 2.1094 2.29952 2.48466 2.66811 2.85324 3.04344 3.24214 3.45273 1.71483 1.92502 2.12349 2.31346 2.49829 2.68146 2.86654 3.05714 3.25687 3.46934 1.72791 1.93884 2.13748 2.32725 2.51171 2.69453 2.8795 3.07043 3.27116 3.4855 1.74097 1.95261 2.15138 2.34089 2.5249 2.7073 2.89209 3.08331 3.285 3.50118 1.75402 1.96633 2.16518 2.35436 2.53786 2.71978 2.90432 3.09576 3.29837 3.51637 1.76703 1.97999 2.17887 2.36767 2.55059 2.73194 2.91618 3.10778 3.31126 3.53106 1.78002 1.9936 2.19245 2.38081 2.56307 2.74379 2.92765 3.11936 3.32366 3.54524 1.79297 2.00713 2.20592 2.39376 2.5753 2.75532 2.93873 3.13049 3.33557 3.55889 1.79297 2.00713 2.20592 2.39376 2.5753 2.75532 2.93873 3.13049 3.33557 3.55889 1.80589 2.0206 2.21926 2.40653 2.58728 2.76652 2.94941 3.14115 3.34696 3.57201 1.81877 2.03399 2.23247 2.41911 2.59899 2.77738 2.95968 3.15135 3.35784 3.58457 1.8316 2.0473 2.24556 2.43149 2.61043 2.7879 2.96954 3.16106 3.36818 3.59658 1.84437 2.06052 2.2585 2.44366 2.62159 2.79806 2.97896 3.17027 3.37798 3.608 1.8571 2.07365 2.2713 2.45563 2.63247 2.80786 2.98795 3.17899 3.38722 3.61884 1.86976 2.08668 2.28394 2.46737 2.64306 2.81729 2.9965 3.18719 3.3959 3.62907 1.88236 2.09962 2.29644 2.4789 2.65335 2.82634 3.00459 3.19488 3.404 3.63869 1.89489 2.11244 2.30877 2.49019 2.66333 2.83501 3.01222 3.20203 3.41152 3.64769 1.90735 2.12516 2.32093 2.50125 2.673 2.84329 3.01938 3.20864 3.41843 3.65604 1.21282 1.37708 1.54108 1.70386 1.86443 2.0218 2.17497 2.32296 2.4648 2.59955 1.22513 1.39085 1.55619 1.72024 1.88207 2.04073 2.19528 2.34477 2.48831 2.62499 1.23749 1.40465 1.57132 1.73664 1.8997 2.05963 2.21554 2.36653 2.51175 2.65037 1.2499 1.4185 1.58648 1.75303 1.91731 2.0785 2.23574 2.38822 2.53513 2.6757 1.26235 1.43238 1.60166 1.76943 1.9349 2.09731 2.25588 2.40983 2.55843 2.70096 1.27484 1.4463 1.61686 1.78582 1.95247 2.11608 2.27595 2.43136 2.58165 2.72615 1.28737 1.46024 1.63207 1.8022 1.96999 2.13479 2.29594 2.45281 2.60477 2.75125 1.29994 1.47422 1.64729 1.81857 1.98749 2.15344 2.31585 2.47415 2.6278 2.77625 1.31255 1.48822 1.66252 1.83493 2.00494 2.17202 2.33568 2.4954 2.65071 2.80116 1.3252 1.50225 1.67775 1.85127 2.02234 2.19053 2.3554 2.51653 2.67351 2.82595 1.3252 1.50225 1.67775 1.85127 2.02234 2.19053 2.3554 2.51653 2.67351 2.82595 1.33788 1.5163 1.69299 1.86758 2.0397 2.20897 2.37503 2.53754 2.69618 2.85063 1.3506 1.53037 1.70823 1.88387 2.05699 2.22731 2.39455 2.55843 2.71872 2.87518 1.36335 1.54446 1.72346 1.90013 2.07423 2.24557 2.41395 2.57918 2.74111 2.89959 1.37613 1.55857 1.73869 1.91635 2.0914 2.26373 2.43323 2.5998 2.76336 2.92386 1.38894 1.57269 1.75391 1.93254 2.10851 2.2818 2.45238 2.62026 2.78544 2.94797 1.40178 1.58683 1.76912 1.94868 2.12554 2.29975 2.4714 2.64057 2.80737 2.97192 1.41465 1.60098 1.78432 1.96478 2.14249 2.3176 2.49027 2.66071 2.82911 2.9957 1.42754 1.61514 1.7995 1.98083 2.15936 2.33532 2.509 2.68069 2.85068 3.0193 1.44046 1.6293 1.81466 1.99683 2.17613 2.35292 2.52758 2.70048 2.87205 3.04271 0.000129207 0.0157368 0.0317537 0.0481877 0.0650467 0.0823384 0.100071 0.118251 0.136888 0.155988 0.000122719 0.0159049 0.0321035 0.0487262 0.065781 0.0832756 0.101218 0.119616 0.138476 0.157808 0.000115839 0.0160735 0.0324548 0.0492673 0.0665192 0.084218 0.102372 0.120988 0.140075 0.159639 0.000108547 0.0162426 0.0328075 0.0498111 0.0672612 0.0851657 0.103532 0.122369 0.141683 0.161482 0.000100824 0.0164122 0.0331618 0.0503575 0.0680072 0.0861186 0.104699 0.123757 0.1433 0.163335 9.26522e-05 0.0165822 0.0335176 0.0509066 0.068757 0.0870766 0.105873 0.125154 0.144927 0.1652 8.40121e-05 0.0167527 0.0338749 0.0514583 0.0695108 0.0880399 0.107053 0.126559 0.146564 0.167076 7.48848e-05 0.0169236 0.0342336 0.0520127 0.0702684 0.0890084 0.10824 0.127972 0.14821 0.168962 6.52515e-05 0.017095 0.0345939 0.0525697 0.0710299 0.0899821 0.109434 0.129392 0.149865 0.17086 5.50933e-05 0.0172668 0.0349557 0.0531294 0.0717953 0.0909609 0.110634 0.130821 0.15153 0.172768 0.805946 0.916512 1.02797 1.1388 1.24749 1.35246 1.45214 1.54496 1.62937 1.70388 0.816176 0.928191 1.04111 1.15342 1.26358 1.37001 1.47115 1.56541 1.65125 1.72716 0.826473 0.939943 1.05432 1.16811 1.27975 1.38766 1.49026 1.58598 1.67326 1.75058 0.836836 0.951767 1.06762 1.18288 1.296 1.40539 1.50947 1.60665 1.69538 1.77413 0.847265 0.963662 1.08099 1.19773 1.31234 1.42321 1.52877 1.62742 1.71761 1.79781 0.857759 0.975628 1.09444 1.21266 1.32875 1.44111 1.54816 1.64829 1.73996 1.82162 0.868319 0.987664 1.10795 1.22767 1.34524 1.4591 1.56763 1.66926 1.76241 1.84555 0.878943 0.999769 1.12154 1.24275 1.36181 1.47716 1.58719 1.69031 1.78496 1.8696 0.889631 1.01194 1.1352 1.2579 1.37846 1.4953 1.60683 1.71145 1.80761 1.89377 0.900383 1.02418 1.14893 1.27312 1.39517 1.51351 1.62654 1.73268 1.83035 1.91805 0.900383 1.02418 1.14893 1.27312 1.39517 1.51351 1.62654 1.73268 1.83035 1.91805 0.911198 1.03649 1.16273 1.28841 1.41195 1.53179 1.64633 1.75399 1.85319 1.94243 0.922075 1.04887 1.1766 1.30376 1.4288 1.55014 1.66619 1.77537 1.87612 1.96692 0.933015 1.0613 1.19053 1.31918 1.44572 1.56856 1.68612 1.79683 1.89913 1.99151 0.944017 1.07381 1.20453 1.33467 1.46269 1.58703 1.70611 1.81836 1.92222 2.01619 0.95508 1.08637 1.21859 1.35022 1.47973 1.60557 1.72617 1.83995 1.94539 2.04097 0.966203 1.099 1.23271 1.36582 1.49683 1.62417 1.74628 1.86161 1.96863 2.06584 0.977386 1.1117 1.24689 1.38149 1.51398 1.64282 1.76645 1.88333 1.99194 2.0908 0.988629 1.12445 1.26113 1.39721 1.53119 1.66152 1.78667 1.90511 2.01532 2.11583 0.99993 1.13726 1.27543 1.41299 1.54844 1.68027 1.80694 1.92694 2.03876 2.14095 0.483627 0.547608 0.611627 0.674658 0.735653 0.793548 0.847276 0.895781 0.938025 0.973001 0.491355 0.556456 0.621618 0.685799 0.747933 0.806939 0.861735 0.911245 0.954415 0.99022 0.499154 0.565386 0.631702 0.697044 0.760329 0.82046 0.876336 0.926865 0.970974 1.00762 0.507023 0.574397 0.641878 0.708393 0.772842 0.83411 0.89108 0.942641 0.987704 1.02521 0.514962 0.583489 0.652147 0.719847 0.785472 0.847889 0.905965 0.958571 1.0046 1.04298 0.522971 0.592661 0.662508 0.731404 0.798217 0.861797 0.920991 0.974657 1.02167 1.06094 0.531051 0.601915 0.672961 0.743065 0.811077 0.875831 0.936158 0.990896 1.0389 1.07907 0.5392 0.61125 0.683505 0.754828 0.824052 0.889993 0.951464 1.00729 1.05631 1.09739 0.54742 0.620665 0.694142 0.766695 0.837141 0.904281 0.96691 1.02383 1.07387 1.11589 0.55571 0.630161 0.704869 0.778663 0.850344 0.918694 0.982493 1.04053 1.09161 1.13457 0.55571 0.630161 0.704869 0.778663 0.850344 0.918694 0.982493 1.04053 1.09161 1.13457 0.564071 0.639738 0.715688 0.790734 0.86366 0.933233 0.998214 1.05737 1.10951 1.15343 0.572501 0.649395 0.726598 0.802907 0.87709 0.947897 1.01407 1.07437 1.12757 1.17247 0.581002 0.659133 0.737599 0.815181 0.890631 0.962684 1.03007 1.09152 1.14579 1.19169 0.589574 0.668952 0.74869 0.827556 0.904285 0.977595 1.0462 1.10881 1.16418 1.21109 0.598215 0.67885 0.759872 0.840032 0.918051 0.992629 1.06246 1.12626 1.18274 1.23066 0.606927 0.688829 0.771144 0.852608 0.931927 1.00779 1.07886 1.14385 1.20145 1.25041 0.615709 0.698888 0.782506 0.865284 0.945914 1.02306 1.0954 1.16159 1.22033 1.27034 0.624561 0.709026 0.793957 0.878061 0.960011 1.03846 1.11206 1.17947 1.23936 1.29045 0.633484 0.719245 0.805498 0.890936 0.974218 1.05398 1.12886 1.1975 1.25856 1.31073 -0.000512786 0.0257572 0.0530622 0.0813701 0.110648 0.140861 0.171976 0.203956 0.236765 0.270366 -0.000507665 0.0259794 0.0535215 0.082084 0.111631 0.142126 0.173531 0.205809 0.238919 0.272822 -0.000500522 0.0262041 0.0539845 0.0828029 0.112621 0.143399 0.175097 0.207674 0.241086 0.275292 -0.000491646 0.0264312 0.0544509 0.083527 0.113618 0.144682 0.176674 0.209552 0.243268 0.277777 -0.000481321 0.0266604 0.0549207 0.0842562 0.114622 0.145973 0.178263 0.211443 0.245465 0.280279 -0.000469834 0.0268914 0.0553937 0.0849904 0.115634 0.147275 0.179863 0.213348 0.247677 0.282797 -0.000457473 0.0271241 0.05587 0.0857299 0.116653 0.148586 0.181476 0.215268 0.249905 0.285332 -0.000444525 0.0273583 0.0563492 0.0864745 0.117679 0.149907 0.183101 0.217202 0.252151 0.287885 -0.000431275 0.0275937 0.0568314 0.0872243 0.118714 0.151239 0.18474 0.219153 0.254413 0.290457 -0.000418011 0.0278301 0.0573164 0.0879794 0.119756 0.152582 0.186392 0.221119 0.256694 0.293048 0.608592 0.693058 0.780636 0.870866 0.963276 1.05738 1.15267 1.24863 1.34474 1.44046 0.61394 0.699184 0.787598 0.878704 0.972013 1.06702 1.1632 1.26002 1.35694 1.45339 0.619299 0.705323 0.794575 0.88656 0.980771 1.07668 1.17375 1.27144 1.36916 1.46635 0.624669 0.711474 0.801565 0.894433 0.989549 1.08637 1.18434 1.28288 1.38141 1.47933 0.630049 0.717634 0.808568 0.902321 0.998345 1.09608 1.19494 1.29435 1.39368 1.49233 0.635437 0.723804 0.815582 0.910223 1.00716 1.10581 1.20557 1.30584 1.40597 1.50534 0.640833 0.729981 0.822605 0.918137 1.01599 1.11556 1.21623 1.31735 1.41829 1.51837 0.646236 0.736165 0.829637 0.926063 1.02484 1.12533 1.2269 1.32889 1.43062 1.53142 0.651645 0.742355 0.836676 0.933999 1.03369 1.13511 1.23759 1.34044 1.44297 1.54447 0.657059 0.748549 0.843721 0.941944 1.04257 1.14491 1.2483 1.35202 1.45534 1.55755 0.657059 0.748549 0.843721 0.941944 1.04257 1.14491 1.2483 1.35202 1.45534 1.55755 0.662477 0.754746 0.85077 0.949896 1.05145 1.15473 1.25903 1.36361 1.46773 1.57063 0.667898 0.760944 0.857822 0.957854 1.06034 1.16456 1.26977 1.37522 1.48013 1.58372 0.673322 0.767143 0.864875 0.965815 1.06924 1.1744 1.28053 1.38685 1.49255 1.59682 0.678746 0.77334 0.871927 0.973777 1.07814 1.18425 1.2913 1.39848 1.50498 1.60993 0.684171 0.779535 0.878976 0.98174 1.08705 1.1941 1.30208 1.41013 1.51741 1.62304 0.689594 0.785725 0.886021 0.9897 1.09596 1.20396 1.31287 1.42179 1.52986 1.63616 0.695016 0.791909 0.893059 0.997656 1.10487 1.21383 1.32366 1.43346 1.54231 1.64927 0.700435 0.798086 0.90009 1.00561 1.11377 1.22369 1.33446 1.44514 1.55477 1.66239 0.705849 0.804254 0.907111 1.01355 1.12267 1.23356 1.34527 1.45682 1.56724 1.67551 0.514834 0.585621 0.658676 0.733764 0.810643 0.88906 0.968757 1.04947 1.13091 1.21282 0.519902 0.591428 0.665259 0.741154 0.818859 0.898114 0.97865 1.06019 1.14245 1.22513 0.524988 0.597255 0.671867 0.748573 0.827109 0.907206 0.988584 1.07096 1.15403 1.23749 0.530091 0.603102 0.6785 0.75602 0.835393 0.916336 0.99856 1.08177 1.16565 1.2499 0.535212 0.60897 0.685156 0.763496 0.843709 0.925503 1.00858 1.09262 1.17732 1.26235 0.54035 0.614858 0.691835 0.771 0.852057 0.934706 1.01863 1.10352 1.18903 1.27484 0.545506 0.620766 0.698539 0.778531 0.860438 0.943945 1.02873 1.11446 1.20079 1.28737 0.550678 0.626693 0.705265 0.786089 0.86885 0.95322 1.03886 1.12544 1.21258 1.29994 0.555866 0.632639 0.712013 0.793674 0.877292 0.96253 1.04904 1.13646 1.22442 1.31255 0.561071 0.638603 0.718784 0.801285 0.885765 0.971874 1.05925 1.14752 1.2363 1.3252 0.561071 0.638603 0.718784 0.801285 0.885765 0.971874 1.05925 1.14752 1.2363 1.3252 0.566292 0.644587 0.725577 0.808922 0.894269 0.981251 1.06949 1.15861 1.24821 1.33788 0.571529 0.650588 0.732392 0.816585 0.902801 0.990662 1.07978 1.16975 1.26016 1.3506 0.576781 0.656607 0.739227 0.824272 0.911362 1.0001 1.09009 1.18092 1.27215 1.36335 0.582048 0.662643 0.746082 0.831982 0.91995 1.00958 1.10044 1.19212 1.28417 1.37613 0.58733 0.668695 0.752956 0.839716 0.928565 1.01908 1.11083 1.20336 1.29622 1.38894 0.592625 0.674763 0.759849 0.847472 0.937206 1.02861 1.12124 1.21463 1.30831 1.40178 0.597934 0.680847 0.766761 0.855249 0.945872 1.03817 1.13169 1.22593 1.32042 1.41465 0.603257 0.686945 0.77369 0.863048 0.954562 1.04776 1.14216 1.23727 1.33257 1.42754 0.608592 0.693058 0.780636 0.870866 0.963276 1.05738 1.15267 1.24863 1.34474 1.44046 -0.000875939 0.0328585 0.069518 0.108712 0.150043 0.193106 0.237489 0.282775 0.328536 0.374342 -0.000958675 0.032885 0.0697965 0.109357 0.151141 0.194714 0.239635 0.285455 0.331719 0.377964 -0.00102332 0.0328973 0.0700444 0.109969 0.152212 0.19631 0.241788 0.288165 0.334952 0.381652 -0.00105508 0.0328985 0.0702574 0.110538 0.153248 0.197887 0.243944 0.290903 0.338236 0.385409 -0.00103918 0.0328917 0.070431 0.111057 0.154239 0.199435 0.246097 0.293666 0.341573 0.389242 -0.000960825 0.0328798 0.0705608 0.111517 0.155175 0.200948 0.248242 0.296453 0.344966 0.393157 -0.000805241 0.0328662 0.0706423 0.11191 0.156047 0.202416 0.250373 0.299262 0.348416 0.397157 -0.00055764 0.0328537 0.0706713 0.112228 0.156845 0.203832 0.252485 0.302091 0.351925 0.40125 -0.000203236 0.0328456 0.0706432 0.112462 0.157561 0.205187 0.254572 0.304939 0.355496 0.405439 0.000272755 0.0328448 0.0705536 0.112604 0.158184 0.206472 0.256629 0.307804 0.359131 0.409731 0.802626 0.913187 1.03071 1.15357 1.28013 1.40868 1.53748 1.66474 1.78864 1.90735 0.807986 0.919096 1.03735 1.16108 1.28859 1.4181 1.54783 1.67594 1.80054 1.91972 0.813347 0.924985 1.04396 1.16855 1.29699 1.42747 1.55813 1.68707 1.81236 1.93202 0.81871 0.930851 1.05052 1.17596 1.30533 1.43677 1.56836 1.69814 1.82411 1.94423 0.824074 0.936691 1.05705 1.18331 1.31361 1.44601 1.57852 1.70914 1.83578 1.95636 0.829441 0.942503 1.06352 1.19061 1.32182 1.45517 1.58861 1.72005 1.84737 1.96839 0.834809 0.948283 1.06994 1.19783 1.32995 1.46425 1.59861 1.73088 1.85887 1.98033 0.840179 0.954029 1.0763 1.20498 1.338 1.47324 1.60852 1.74162 1.87027 1.99216 0.845551 0.959738 1.0826 1.21205 1.34596 1.48214 1.61835 1.75227 1.88159 2.0039 0.850925 0.965408 1.08882 1.21903 1.35383 1.49094 1.62807 1.76282 1.8928 2.01553 0.850925 0.965408 1.08882 1.21903 1.35383 1.49094 1.62807 1.76282 1.8928 2.01553 0.856305 0.971036 1.09498 1.22592 1.36159 1.49964 1.63768 1.77327 1.90391 2.02705 0.861701 0.976625 1.10105 1.23271 1.36923 1.50821 1.64718 1.7836 1.9149 2.03845 0.86713 0.982177 1.10705 1.23938 1.37674 1.51665 1.65653 1.79379 1.92576 2.04972 0.872606 0.987695 1.11295 1.24592 1.38411 1.52493 1.66573 1.80384 1.93647 2.06085 0.878144 0.993183 1.11875 1.25232 1.39131 1.53303 1.67477 1.81372 1.94703 2.07182 0.883758 0.998642 1.12445 1.25858 1.39833 1.54095 1.68361 1.82342 1.95742 2.08262 0.889465 1.00408 1.13004 1.26467 1.40516 1.54867 1.69225 1.83292 1.96763 2.09325 0.895278 1.00949 1.13552 1.27058 1.41178 1.55616 1.70067 1.84222 1.97763 2.1037 0.901213 1.01488 1.14088 1.27631 1.41818 1.56341 1.70885 1.85129 1.98743 2.11394 0.705849 0.804254 0.907111 1.01355 1.12267 1.23356 1.34527 1.45682 1.56724 1.67551 0.711259 0.810412 0.914121 1.02148 1.13157 1.24343 1.35607 1.46851 1.5797 1.68862 0.716664 0.81656 0.921118 1.0294 1.14046 1.25329 1.36688 1.48019 1.59217 1.70173 0.722064 0.822696 0.928102 1.03731 1.14934 1.26314 1.37768 1.49188 1.60463 1.71483 0.72746 0.828821 0.935073 1.04521 1.1582 1.27299 1.38848 1.50356 1.61709 1.72791 0.732851 0.834935 0.942029 1.05309 1.16706 1.28283 1.39927 1.51523 1.62953 1.74097 0.738237 0.841037 0.948969 1.06096 1.1759 1.29265 1.41004 1.52689 1.64196 1.75402 0.743619 0.847126 0.955894 1.06881 1.18472 1.30246 1.42081 1.53853 1.65437 1.76703 0.748997 0.853203 0.962801 1.07664 1.19353 1.31225 1.43156 1.55016 1.66676 1.78002 0.754371 0.859267 0.969691 1.08445 1.20232 1.32203 1.44229 1.56177 1.67912 1.79297 0.754371 0.859267 0.969691 1.08445 1.20232 1.32203 1.44229 1.56177 1.67912 1.79297 0.759741 0.865317 0.976563 1.09224 1.21109 1.33178 1.453 1.57336 1.69146 1.80589 0.765107 0.871354 0.983414 1.10001 1.21983 1.34151 1.46368 1.58491 1.70377 1.81877 0.770471 0.877376 0.990245 1.10775 1.22854 1.35122 1.47434 1.59644 1.71604 1.8316 0.775832 0.883384 0.997052 1.11547 1.23723 1.36089 1.48496 1.60794 1.72826 1.84437 0.781192 0.889377 1.00384 1.12316 1.24589 1.37053 1.49555 1.61939 1.74045 1.8571 0.786551 0.895354 1.01059 1.13081 1.25451 1.38013 1.5061 1.6308 1.75258 1.86976 0.791909 0.901315 1.01733 1.13844 1.26309 1.38969 1.51661 1.64217 1.76466 1.88236 0.797267 0.907259 1.02403 1.14602 1.27163 1.39921 1.52707 1.65348 1.77668 1.89489 0.802626 0.913187 1.03071 1.15357 1.28013 1.40868 1.53748 1.66474 1.78864 1.90735 0.000187105 0.0128114 0.0257369 0.0389694 0.0525147 0.0663786 0.0805668 0.0950851 0.109939 0.125134 0.000186024 0.0129678 0.0260561 0.0394569 0.053176 0.0672195 0.0815931 0.0963028 0.111354 0.126754 0.000184839 0.0131251 0.0263772 0.0399473 0.0538415 0.0680658 0.0826262 0.0975288 0.11278 0.128384 0.000183517 0.0132831 0.0267001 0.0404407 0.0545111 0.0689175 0.083666 0.0987629 0.114214 0.130026 0.000182026 0.013442 0.0270249 0.040937 0.0551848 0.0697746 0.0847127 0.100005 0.115659 0.131679 0.000180334 0.0136016 0.0273514 0.0414363 0.0558627 0.0706372 0.085766 0.101256 0.117113 0.133343 0.000178409 0.013762 0.0276798 0.0419385 0.0565448 0.0715051 0.0868261 0.102514 0.118576 0.135019 0.000176219 0.013923 0.0280099 0.0424436 0.0572309 0.0723784 0.087893 0.103781 0.12005 0.136705 0.000173732 0.0140848 0.0283419 0.0429517 0.0579212 0.0732572 0.0889665 0.105056 0.121532 0.138402 0.000170917 0.0142473 0.0286755 0.0434626 0.0586156 0.0741413 0.0900468 0.106339 0.123025 0.140111 0.276155 0.312699 0.350162 0.388492 0.427634 0.467533 0.50813 0.549364 0.59117 0.633484 0.279877 0.316945 0.354949 0.393836 0.433552 0.47404 0.51524 0.557089 0.599523 0.642476 0.283627 0.321222 0.359771 0.399221 0.439516 0.480597 0.522405 0.564875 0.607942 0.651539 0.287404 0.325531 0.36463 0.404647 0.445525 0.487205 0.529625 0.572721 0.616426 0.660671 0.291208 0.329872 0.369525 0.410114 0.45158 0.493863 0.5369 0.580627 0.624974 0.669873 0.29504 0.334244 0.374457 0.415622 0.45768 0.500571 0.544231 0.588593 0.633588 0.679144 0.298899 0.338648 0.379424 0.42117 0.463826 0.50733 0.551617 0.596619 0.642266 0.688486 0.302786 0.343084 0.384428 0.426759 0.470018 0.51414 0.559059 0.604706 0.65101 0.697896 0.3067 0.347552 0.389468 0.43239 0.476255 0.521 0.566556 0.612853 0.659818 0.707376 0.310642 0.352051 0.394544 0.438061 0.482538 0.52791 0.574108 0.621059 0.668691 0.716925 0.310642 0.352051 0.394544 0.438061 0.482538 0.52791 0.574108 0.621059 0.668691 0.716925 0.314611 0.356582 0.399657 0.443773 0.488867 0.534871 0.581715 0.629326 0.677628 0.726543 0.318607 0.361144 0.404805 0.449526 0.495241 0.541883 0.589378 0.637653 0.68663 0.736229 0.32263 0.365738 0.409989 0.455319 0.501661 0.548945 0.597096 0.64604 0.695697 0.745985 0.32668 0.370364 0.41521 0.461154 0.508126 0.556057 0.604869 0.654486 0.704827 0.755809 0.330758 0.37502 0.420466 0.467028 0.514637 0.563219 0.612697 0.662992 0.714022 0.765701 0.334862 0.379708 0.425758 0.472943 0.521193 0.570431 0.620579 0.671557 0.72328 0.77566 0.338993 0.384426 0.431085 0.478898 0.527793 0.577693 0.628517 0.680182 0.732602 0.785688 0.343151 0.389176 0.436447 0.484893 0.534439 0.585004 0.636509 0.688866 0.741988 0.795784 0.347335 0.393956 0.441845 0.490929 0.541129 0.592366 0.644555 0.697609 0.751437 0.805946 0.213867 0.241704 0.270178 0.299246 0.328867 0.358995 0.389584 0.420586 0.451951 0.483627 0.217093 0.24538 0.274317 0.303862 0.333972 0.364602 0.395705 0.427232 0.459133 0.491355 0.220347 0.249087 0.278491 0.308517 0.339121 0.370258 0.40188 0.433938 0.46638 0.499154 0.223629 0.252825 0.2827 0.313212 0.344315 0.375963 0.408109 0.440702 0.473692 0.507023 0.226938 0.256595 0.286946 0.317947 0.349553 0.381718 0.414392 0.447527 0.481068 0.514962 0.230274 0.260397 0.291227 0.322722 0.354836 0.387522 0.42073 0.45441 0.488509 0.522971 0.233638 0.264229 0.295544 0.327537 0.360164 0.393376 0.427123 0.461354 0.496015 0.531051 0.237029 0.268094 0.299897 0.332393 0.365537 0.399279 0.433571 0.468358 0.503586 0.5392 0.240448 0.27199 0.304285 0.337289 0.370955 0.405233 0.440073 0.475421 0.511222 0.54742 0.243895 0.275918 0.30871 0.342226 0.376418 0.411237 0.44663 0.482544 0.518923 0.55571 0.243895 0.275918 0.30871 0.342226 0.376418 0.411237 0.44663 0.482544 0.518923 0.55571 0.247369 0.279878 0.313171 0.347204 0.381927 0.417291 0.453243 0.489728 0.52669 0.564071 0.250871 0.283869 0.317669 0.352222 0.387481 0.423395 0.45991 0.496972 0.534522 0.572501 0.254401 0.287893 0.322202 0.357281 0.393081 0.42955 0.466633 0.504276 0.542419 0.581002 0.257957 0.291948 0.326772 0.362381 0.398726 0.435755 0.473411 0.51164 0.550381 0.589574 0.261542 0.296035 0.331377 0.367522 0.404417 0.44201 0.480245 0.519064 0.558408 0.598215 0.265154 0.300153 0.336019 0.372703 0.410153 0.448315 0.487133 0.526549 0.566501 0.606927 0.268793 0.304303 0.340697 0.377925 0.415934 0.454671 0.494077 0.534093 0.574659 0.615709 0.272461 0.308486 0.345412 0.383188 0.421762 0.461077 0.501076 0.541698 0.582882 0.624561 0.276155 0.312699 0.350162 0.388492 0.427634 0.467533 0.50813 0.549364 0.59117 0.633484 -5.83726e-05 0.0188349 0.0382813 0.0582873 0.0788595 0.100004 0.121727 0.144035 0.166934 0.19043 -7.30758e-05 0.0190117 0.0386586 0.058874 0.079664 0.101035 0.122993 0.145543 0.168693 0.192447 -8.81389e-05 0.0191891 0.0390376 0.0594633 0.0804724 0.102071 0.124265 0.147059 0.17046 0.194474 -0.000103555 0.0193671 0.0394181 0.0600554 0.0812849 0.103112 0.125543 0.148583 0.172238 0.196512 -0.000119319 0.0195457 0.0398003 0.0606503 0.0821014 0.104159 0.126828 0.150115 0.174024 0.19856 -0.000135423 0.0197248 0.0401841 0.0612481 0.082922 0.105211 0.128121 0.151655 0.17582 0.20062 -0.000151861 0.0199045 0.0405696 0.0618486 0.0837467 0.106269 0.12942 0.153204 0.177626 0.202691 -0.000168627 0.0200849 0.0409568 0.0624521 0.0845755 0.107332 0.130725 0.154761 0.179442 0.204773 -0.000185714 0.0202658 0.0413456 0.0630584 0.0854086 0.1084 0.132038 0.156326 0.181267 0.206866 -0.000203117 0.0204474 0.0417362 0.0636677 0.0862458 0.109475 0.133358 0.157899 0.183102 0.20897 0.42714 0.485205 0.544975 0.606324 0.669123 0.733236 0.798521 0.864833 0.932021 0.99993 0.431817 0.490557 0.551029 0.613103 0.676646 0.741516 0.807568 0.874652 0.942613 1.01129 0.436519 0.495938 0.557116 0.61992 0.68421 0.749842 0.816665 0.884525 0.953261 1.02271 0.441245 0.501347 0.563235 0.626773 0.691815 0.758213 0.825812 0.894451 0.963964 1.03418 0.445995 0.506784 0.569387 0.633663 0.699462 0.766631 0.835008 0.904429 0.974723 1.04572 0.450769 0.512248 0.575571 0.64059 0.70715 0.775093 0.844254 0.91446 0.985537 1.0573 0.455566 0.51774 0.581786 0.647552 0.714879 0.783601 0.853548 0.924544 0.996406 1.06895 0.460387 0.523259 0.588033 0.65455 0.722647 0.792153 0.862891 0.934679 1.00733 1.08065 0.46523 0.528804 0.59431 0.661584 0.730456 0.80075 0.872282 0.944866 1.0183 1.0924 0.470096 0.534376 0.600618 0.668653 0.738304 0.80939 0.881722 0.955103 1.02933 1.10421 0.470096 0.534376 0.600618 0.668653 0.738304 0.80939 0.881722 0.955103 1.02933 1.10421 0.474984 0.539973 0.606956 0.675756 0.746192 0.818075 0.891209 0.965392 1.04042 1.11607 0.479894 0.545596 0.613323 0.682894 0.754119 0.826802 0.900743 0.975731 1.05155 1.12799 0.484825 0.551244 0.61972 0.690065 0.762083 0.835573 0.910324 0.98612 1.06274 1.13995 0.489777 0.556916 0.626145 0.697269 0.770086 0.844385 0.91995 0.996558 1.07398 1.15197 0.494749 0.562612 0.632598 0.704506 0.778125 0.853239 0.929623 1.00704 1.08527 1.16404 0.499742 0.568331 0.639078 0.711774 0.786201 0.862134 0.93934 1.01758 1.0966 1.17616 0.504753 0.574072 0.645585 0.719074 0.794313 0.87107 0.949102 1.02816 1.10799 1.18833 0.509784 0.579836 0.652118 0.726404 0.802461 0.880046 0.958908 1.03879 1.11943 1.20055 0.514834 0.585621 0.658676 0.733764 0.810643 0.88906 0.968757 1.04947 1.13091 1.21282 0.347335 0.393956 0.441845 0.490929 0.541129 0.592366 0.644555 0.697609 0.751437 0.805946 0.351546 0.398767 0.447278 0.497004 0.547864 0.599777 0.652656 0.706411 0.76095 0.816176 0.355783 0.403609 0.452746 0.503119 0.554644 0.607237 0.66081 0.715271 0.770525 0.826473 0.360047 0.408481 0.45825 0.509273 0.561468 0.614747 0.669019 0.72419 0.780163 0.836836 0.364337 0.413384 0.463788 0.515468 0.568337 0.622306 0.677282 0.733168 0.789863 0.8472