<?xml version="1.0"?> 
<VTKFile type="UnstructuredGrid" version="0.1"> 
<UnstructuredGrid> 
<Piece NumberOfPoints="11200" NumberOfCells="9072"> 
<PointData Scalars="u">
<DataArray type="Float32" Name="u" format="ascii" NumberOfComponents="1"> 
3.92539e-17 0.0395042 0.0793558 0.119425 0.15958 0.199693 0.239632 0.279268 0.31847 0.357107 3.99606e-17 0.0402038 0.0807401 0.121478 0.162288 0.203039 0.243599 0.28384 0.323629 0.362837 4.06291e-17 0.0408648 0.0820469 0.123415 0.164839 0.206188 0.24733 0.288134 0.32847 0.368206 4.12582e-17 0.041486 0.0832739 0.125232 0.16723 0.209135 0.250817 0.292143 0.332984 0.373206 4.18467e-17 0.0420664 0.0844188 0.126925 0.169455 0.211875 0.254054 0.295861 0.337164 0.377831 4.23934e-17 0.0426048 0.0854792 0.128492 0.17151 0.214402 0.257036 0.299281 0.341004 0.382073 4.28972e-17 0.0431 0.0864531 0.129927 0.173391 0.216711 0.259757 0.302395 0.344495 0.385924 4.33568e-17 0.043551 0.087338 0.131229 0.175093 0.218797 0.262209 0.305198 0.347632 0.389379 4.37711e-17 0.0439566 0.0881317 0.132394 0.176612 0.220653 0.264387 0.307682 0.350406 0.392428 4.41388e-17 0.0443156 0.088832 0.133418 0.177943 0.222276 0.266285 0.309841 0.352812 0.395066 0.476003 0.469212 0.461383 0.452596 0.442933 0.432473 0.421297 0.409485 0.397118 0.384277 0.500388 0.493315 0.485156 0.475993 0.465908 0.454985 0.443306 0.430954 0.41801 0.404558 0.524437 0.517092 0.508614 0.499085 0.488592 0.477219 0.465049 0.452168 0.438659 0.424607 0.548174 0.540565 0.531774 0.521887 0.51099 0.49917 0.486514 0.473107 0.459037 0.444391 0.571622 0.563757 0.554656 0.544409 0.533106 0.520836 0.507688 0.493752 0.479118 0.463875 0.594806 0.586688 0.577276 0.566664 0.554944 0.542212 0.52856 0.514083 0.498874 0.483027 0.617751 0.609383 0.599654 0.588663 0.57651 0.563296 0.549119 0.534079 0.518277 0.501812 0.64048 0.631862 0.621806 0.610419 0.597809 0.584084 0.569352 0.553722 0.537301 0.520197 0.663017 0.654148 0.643751 0.631943 0.618844 0.604573 0.589248 0.57299 0.555917 0.538148 0.685387 0.676264 0.665506 0.653247 0.63962 0.624759 0.608796 0.591865 0.574099 0.555632 2.20941e-17 0.0223057 0.0449379 0.0678107 0.0908383 0.113935 0.137014 0.159991 0.18278 0.205294 2.32071e-17 0.023429 0.0471995 0.0712215 0.0954045 0.119659 0.143893 0.168018 0.191944 0.215579 2.4303e-17 0.0245348 0.0494262 0.0745797 0.0999004 0.125294 0.150665 0.175919 0.200962 0.225699 2.53819e-17 0.025623 0.0516172 0.0778837 0.104323 0.130836 0.157324 0.183688 0.209828 0.235645 2.64438e-17 0.0266934 0.0537719 0.0811319 0.10867 0.136283 0.163866 0.191317 0.218532 0.245407 2.74886e-17 0.027746 0.0558896 0.0843229 0.112938 0.141628 0.170285 0.1988 0.227067 0.254977 2.85164e-17 0.0287806 0.0579695 0.0874551 0.117126 0.146869 0.176575 0.20613 0.235423 0.264343 2.95272e-17 0.0297971 0.0600112 0.090527 0.121229 0.152002 0.182731 0.2133 0.243594 0.273497 3.0521e-17 0.0307953 0.0620138 0.0935369 0.125246 0.157023 0.188748 0.220303 0.25157 0.28243 3.14978e-17 0.0317751 0.0639767 0.0964834 0.129174 0.161926 0.19462 0.227133 0.259344 0.291132 0.871359 0.85256 0.832785 0.812125 0.790669 0.768507 0.745729 0.722424 0.698683 0.674594 0.876883 0.858149 0.838535 0.81809 0.796868 0.774925 0.752322 0.729121 0.705387 0.681187 0.880029 0.861588 0.842282 0.822139 0.801193 0.779487 0.75707 0.733996 0.710321 0.686107 0.880887 0.862893 0.843999 0.824223 0.803595 0.782155 0.759953 0.737046 0.713494 0.689361 0.879546 0.862093 0.843675 0.824312 0.804039 0.782902 0.76096 0.738275 0.714917 0.690954 0.876096 0.859225 0.841315 0.822395 0.802512 0.781721 0.76009 0.737691 0.7146 0.690893 0.870625 0.854336 0.836939 0.818481 0.799018 0.778618 0.757355 0.735308 0.712557 0.689184 0.863223 0.847482 0.830586 0.812596 0.793582 0.773616 0.752777 0.731145 0.708803 0.685833 0.853979 0.838729 0.822309 0.804789 0.786245 0.766752 0.746388 0.72523 0.703356 0.680846 0.842982 0.828152 0.812175 0.795123 0.777067 0.758078 0.738229 0.71759 0.696233 0.674229 0.569223 0.5791 0.589605 0.600748 0.612538 0.624982 0.638091 0.651873 0.666338 0.681493 0.563563 0.574065 0.585171 0.596878 0.609184 0.622083 0.63557 0.649639 0.664279 0.679476 0.557302 0.568338 0.579929 0.59207 0.604754 0.617973 0.631718 0.645973 0.660718 0.675927 0.550406 0.561863 0.573823 0.58628 0.599227 0.612658 0.62656 0.64092 0.655712 0.670902 0.542839 0.554596 0.566813 0.579481 0.592595 0.606148 0.620131 0.634529 0.649317 0.664458 0.534568 0.546505 0.558872 0.571659 0.584859 0.598464 0.612465 0.626847 0.641587 0.656651 0.525556 0.537565 0.549991 0.562819 0.576037 0.589637 0.603605 0.617927 0.632581 0.647536 0.515768 0.527766 0.540176 0.552979 0.566161 0.579706 0.593599 0.607822 0.622355 0.637171 0.505171 0.517107 0.52945 0.54218 0.555278 0.568726 0.582503 0.59659 0.610967 0.625612 0.493728 0.505598 0.517856 0.530483 0.543459 0.556766 0.570384 0.584294 0.598477 0.612914 2.39996e-17 0.0240319 0.047974 0.0717823 0.0954128 0.118821 0.141964 0.164797 0.187276 0.209356 2.32699e-17 0.0232871 0.0464924 0.0695737 0.0924888 0.115195 0.137651 0.159813 0.18164 0.203088 2.25531e-17 0.0225487 0.0450233 0.0673834 0.0895885 0.111598 0.133372 0.154869 0.176049 0.196871 2.18464e-17 0.0218169 0.043567 0.0652117 0.0867123 0.10803 0.129127 0.149964 0.170502 0.190704 2.11468e-17 0.0210918 0.0421236 0.0630587 0.0838603 0.104492 0.124917 0.145098 0.165 0.184585 2.04512e-17 0.0203736 0.0406933 0.0609246 0.0810328 0.100983 0.120741 0.140272 0.15954 0.178513 1.97566e-17 0.0196622 0.0392763 0.0588098 0.0782299 0.0975039 0.116599 0.135483 0.154123 0.172487 1.906e-17 0.0189578 0.0378728 0.0567143 0.0754518 0.0940546 0.112492 0.130733 0.148748 0.166506 1.83584e-17 0.0182605 0.0364829 0.0546385 0.0726988 0.0906351 0.108419 0.126021 0.143414 0.160568 1.76488e-17 0.0175704 0.0351068 0.0525825 0.069971 0.0872457 0.10438 0.121347 0.138121 0.154674 0.380617 0.36085 0.340853 0.32064 0.300222 0.279613 0.258824 0.237869 0.216759 0.195508 0.366319 0.347383 0.328212 0.30882 0.289218 0.26942 0.249437 0.229283 0.20897 0.188511 0.350871 0.332803 0.314499 0.295973 0.277236 0.258301 0.239182 0.219889 0.200437 0.180836 0.334328 0.317163 0.299767 0.28215 0.264326 0.246307 0.228104 0.20973 0.191198 0.172519 0.316745 0.300519 0.284068 0.267405 0.250539 0.233484 0.21625 0.19885 0.181295 0.163597 0.298176 0.282924 0.267458 0.251788 0.235925 0.219881 0.203666 0.187291 0.170767 0.154106 0.278676 0.264433 0.249988 0.235352 0.220535 0.205546 0.190396 0.175096 0.159655 0.144083 0.258298 0.245099 0.231713 0.218149 0.204418 0.190528 0.176488 0.162308 0.147997 0.133564 0.237099 0.224977 0.212685 0.200232 0.187625 0.174874 0.161986 0.148971 0.135835 0.122587 0.215132 0.204122 0.192959 0.181652 0.170208 0.158634 0.146937 0.135126 0.123207 0.111188 0.256547 0.24186 0.227206 0.212591 0.19802 0.183499 0.169033 0.154627 0.140288 0.126021 0.270296 0.25483 0.239395 0.223999 0.208647 0.193345 0.178101 0.162921 0.147809 0.132774 0.28389 0.267651 0.251443 0.235273 0.219147 0.203074 0.18706 0.171112 0.155237 0.139443 0.297291 0.280289 0.263317 0.246382 0.229493 0.212657 0.195883 0.179178 0.16255 0.146007 0.31046 0.292707 0.274982 0.257295 0.239654 0.222068 0.204546 0.187096 0.169728 0.152449 0.32336 0.304869 0.286405 0.26798 0.249601 0.231279 0.213024 0.194844 0.17675 0.15875 0.335953 0.316739 0.297553 0.278405 0.259305 0.240263 0.221291 0.202398 0.183594 0.164892 0.3482 0.328283 0.308392 0.288539 0.268736 0.248993 0.229322 0.209735 0.190242 0.170855 0.360065 0.339463 0.318888 0.298351 0.277865 0.257441 0.237093 0.216832 0.196671 0.176622 0.371508 0.350245 0.329007 0.307808 0.286662 0.265581 0.244578 0.223667 0.202861 0.182173 0.448262 0.42267 0.397098 0.371563 0.346083 0.320674 0.295353 0.270137 0.245042 0.220086 0.453029 0.427218 0.401425 0.375666 0.349957 0.324314 0.298754 0.273291 0.247942 0.222723 0.456899 0.430933 0.404983 0.379062 0.353187 0.32737 0.301628 0.275974 0.250424 0.224992 0.45985 0.433796 0.407753 0.381734 0.355752 0.329821 0.303955 0.278166 0.252468 0.226875 0.461864 0.435786 0.409714 0.383659 0.357633 0.331647 0.305715 0.279846 0.254055 0.228352 0.462918 0.436884 0.410847 0.384819 0.358809 0.332828 0.306887 0.280995 0.255164 0.229404 0.462993 0.437068 0.411132 0.385192 0.35926 0.333343 0.307451 0.281592 0.255777 0.230013 0.462069 0.43632 0.410548 0.38476 0.358966 0.333172 0.307386 0.281617 0.255872 0.230159 0.460124 0.434618 0.409075 0.383502 0.357906 0.332294 0.306673 0.28105 0.255431 0.229825 0.457138 0.431943 0.406695 0.381398 0.356061 0.33069 0.305291 0.27987 0.254434 0.22899 2.69726e-17 2.66635e-17 2.63357e-17 2.59728e-17 2.55584e-17 2.50762e-17 2.45097e-17 2.38427e-17 2.30587e-17 2.21413e-17 0.0272681 0.0268347 0.0263402 0.0257902 0.0251902 0.0245457 0.0238621 0.0231449 0.0223996 0.0216318 0.0545142 0.0536499 0.0526649 0.0515699 0.0503755 0.0490925 0.0477315 0.0463031 0.0448181 0.0432872 0.0817266 0.080435 0.0789639 0.077329 0.075546 0.0736305 0.0715982 0.0694647 0.0672456 0.0649566 0.108894 0.107179 0.105227 0.103057 0.100692 0.09815 0.0954525 0.0926198 0.0896722 0.0866301 0.136003 0.13387 0.131443 0.128745 0.125803 0.122641 0.119284 0.115758 0.112088 0.108298 0.163044 0.160499 0.157602 0.154382 0.150869 0.147094 0.143084 0.138871 0.134483 0.129951 0.190004 0.187054 0.183694 0.179958 0.175882 0.171498 0.166842 0.161947 0.156848 0.151578 0.216872 0.213523 0.209708 0.205463 0.200829 0.195844 0.190547 0.184977 0.179172 0.173171 0.243635 0.239897 0.235634 0.230888 0.225703 0.220123 0.214191 0.207951 0.201446 0.194719 5.18629e-20 1.30428e-18 2.60275e-18 3.9368e-18 5.29596e-18 6.66977e-18 8.04776e-18 9.41946e-18 1.07744e-17 1.21021e-17 1.32107e-18 0.00130616 0.0026325 0.00397374 0.00532459 0.00667977 0.00803399 0.00938198 0.0107184 0.0120381 2.59179e-18 0.00260716 0.00525532 0.00793382 0.010632 0.0133391 0.0160446 0.0187377 0.0214078 0.0240442 3.86268e-18 0.00390256 0.00786738 0.0118783 0.0159193 0.0199741 0.0240268 0.028061 0.0320609 0.0360101 5.1324e-18 0.00519195 0.0104676 0.0158053 0.0211836 0.0265808 0.0319754 0.0373458 0.0426703 0.0479275 6.39963e-18 0.00647489 0.0130549 0.019713 0.0264221 0.0331553 0.0398855 0.0465858 0.053229 0.0597882 7.66301e-18 0.00775096 0.0156282 0.0235993 0.0316319 0.0396936 0.047752 0.0557748 0.0637296 0.071584 8.92122e-18 0.00901973 0.0181864 0.0274624 0.03681 0.0461917 0.0555699 0.0649068 0.0741649 0.0833066 1.01729e-17 0.0102808 0.0207285 0.0313003 0.0419537 0.0526458 0.063334 0.0739755 0.0845277 0.0949477 1.14168e-17 0.0115337 0.0232533 0.0351112 0.04706 0.0590519 0.0710394 0.0829748 0.0948106 0.106499 0.670088 0.658995 0.647092 0.634424 0.621036 0.606973 0.59228 0.577003 0.561186 0.544876 0.642868 0.632269 0.620894 0.608788 0.595993 0.582555 0.568517 0.553923 0.538817 0.523244 0.614124 0.604039 0.593214 0.581691 0.569512 0.556721 0.54336 0.52947 0.515095 0.500276 0.583909 0.574356 0.564101 0.553182 0.54164 0.529517 0.516852 0.503687 0.490062 0.476018 0.552273 0.543271 0.533603 0.523308 0.512423 0.500988 0.489041 0.47662 0.463766 0.450515 0.519271 0.510835 0.501771 0.492117 0.481907 0.471179 0.459969 0.448314 0.436249 0.423811 0.484952 0.477097 0.468654 0.459656 0.45014 0.440137 0.429683 0.418811 0.407557 0.395952 0.449371 0.442108 0.434299 0.425975 0.417167 0.407907 0.398227 0.388159 0.377734 0.366983 0.412578 0.40592 0.398757 0.391119 0.383035 0.374535 0.365647 0.3564 0.346825 0.336949 0.374627 0.368582 0.362077 0.355138 0.347792 0.340066 0.331986 0.32358 0.314874 0.305895 0.362377 0.371997 0.381799 0.391783 0.401948 0.412296 0.422825 0.433537 0.444431 0.455508 0.345016 0.354234 0.363619 0.373172 0.382894 0.392786 0.40285 0.413085 0.423494 0.434077 0.32717 0.335968 0.344919 0.354025 0.363288 0.372709 0.38229 0.392034 0.401941 0.412013 0.308868 0.317227 0.325727 0.33437 0.343158 0.352093 0.361177 0.370413 0.379803 0.389349 0.290139 0.298042 0.306074 0.314238 0.322535 0.330969 0.339542 0.348255 0.357112 0.366115 0.271011 0.278441 0.285989 0.293658 0.30145 0.309368 0.317413 0.32559 0.333899 0.342343 0.251513 0.258453 0.265501 0.27266 0.279932 0.287319 0.294823 0.302447 0.310194 0.318065 0.231673 0.238108 0.244641 0.251275 0.258011 0.264853 0.271801 0.27886 0.286029 0.293313 0.211521 0.217435 0.223437 0.229531 0.235718 0.242 0.248379 0.254857 0.261435 0.268117 0.191085 0.196462 0.201919 0.207459 0.213082 0.21879 0.224586 0.23047 0.236443 0.242509 1.14495e-17 0.0115982 0.0231801 0.0347346 0.0462505 0.0577168 0.0691223 0.0804558 0.0917062 0.102862 1.08787e-17 0.0109476 0.0218802 0.0327877 0.0436602 0.0544877 0.0652603 0.075968 0.0866009 0.097149 1.03314e-17 0.0102977 0.0205815 0.0308425 0.0410717 0.0512604 0.0613995 0.0714802 0.0814936 0.0914307 9.7918e-18 0.00964832 0.0192839 0.0288988 0.038485 0.0480346 0.0575397 0.0669922 0.0763842 0.0857078 9.24418e-18 0.00899944 0.0179873 0.0269565 0.0358999 0.0448103 0.0536808 0.062504 0.071273 0.0799806 8.67281e-18 0.00835105 0.0166917 0.0250155 0.0333162 0.0415873 0.0498226 0.0580156 0.0661601 0.0742495 8.06196e-18 0.00770311 0.0153969 0.0230757 0.0307338 0.0383655 0.0459651 0.0535271 0.0610455 0.0685149 7.39589e-18 0.00705559 0.0141029 0.0211369 0.0281525 0.0351446 0.0421082 0.0490382 0.0559296 0.0627772 6.65887e-18 0.00640846 0.0128096 0.019199 0.0255722 0.0319246 0.0382517 0.0445491 0.0508123 0.0570368 5.83516e-18 0.0057617 0.011517 0.017262 0.0229927 0.0287052 0.0343955 0.0400597 0.0456939 0.051294 2.22976e-17 2.32216e-17 2.40943e-17 2.49077e-17 2.56535e-17 2.63236e-17 2.69099e-17 2.74042e-17 2.77984e-17 2.80844e-17 0.0223879 0.0232869 0.0241213 0.0248887 0.0255869 0.0262134 0.0267657 0.0272416 0.0276387 0.0279545 0.044729 0.0465292 0.0482014 0.0497404 0.0511411 0.0523985 0.0535074 0.054463 0.0552599 0.0558933 0.0670078 0.0697106 0.0722227 0.0745359 0.0766423 0.078534 0.080203 0.0816412 0.0828408 0.0837936 0.0892089 0.0928145 0.0961673 0.0992563 0.102071 0.104599 0.10683 0.108754 0.110358 0.111632 0.111317 0.115824 0.120018 0.123883 0.127406 0.130572 0.133367 0.135778 0.137789 0.139387 0.133317 0.138724 0.143756 0.148396 0.152627 0.156431 0.159792 0.16269 0.16511 0.167034 0.155193 0.161496 0.167364 0.172778 0.177715 0.182157 0.186081 0.189469 0.192299 0.194551 0.176929 0.184124 0.190825 0.197008 0.202649 0.207726 0.212215 0.216091 0.219333 0.221915 0.198512 0.206593 0.214121 0.221068 0.22741 0.233119 0.238169 0.242534 0.246187 0.249103 0.38316 0.398864 0.413517 0.427072 0.439479 0.450692 0.460662 0.469341 0.476682 0.482636 0.402313 0.418816 0.434221 0.448476 0.46153 0.473333 0.483833 0.492979 0.50072 0.507004 0.421131 0.438421 0.454567 0.469514 0.483208 0.495595 0.506621 0.516231 0.524371 0.530986 0.439596 0.457658 0.474532 0.49016 0.504486 0.517451 0.528998 0.539071 0.547611 0.554561 0.457689 0.476507 0.494094 0.510391 0.525337 0.538873 0.550938 0.561472 0.570415 0.577706 0.475391 0.494946 0.51323 0.530181 0.545736 0.559834 0.572412 0.583407 0.592758 0.600401 0.492683 0.512954 0.531917 0.549505 0.565657 0.580308 0.593393 0.604851 0.614616 0.622624 0.509546 0.530513 0.550132 0.568341 0.585073 0.600266 0.613854 0.625775 0.635963 0.644354 0.525961 0.547599 0.567854 0.586661 0.603958 0.619681 0.633768 0.646153 0.656775 0.66557 0.54191 0.564194 0.585058 0.604443 0.622286 0.638528 0.653106 0.665959 0.677028 0.68625 0.660679 0.687535 0.712718 0.736219 0.75803 0.778144 0.796553 0.813249 0.828225 0.841472 0.670681 0.697909 0.723444 0.747282 0.769418 0.789848 0.808568 0.825572 0.840857 0.854417 0.679977 0.707549 0.733412 0.757563 0.78 0.80072 0.819722 0.837002 0.852557 0.866386 0.688565 0.716454 0.74262 0.767061 0.789776 0.810762 0.830019 0.847544 0.863336 0.877394 0.696443 0.724624 0.751069 0.775777 0.798746 0.819974 0.839461 0.857204 0.873203 0.887454 0.703611 0.732056 0.758756 0.783707 0.806909 0.828358 0.848052 0.865989 0.882166 0.896582 0.710065 0.73875 0.76568 0.790853 0.814265 0.835913 0.855794 0.873903 0.890237 0.904793 0.715806 0.744703 0.771841 0.797213 0.820815 0.842642 0.86269 0.880951 0.897423 0.9121 0.72083 0.749915 0.777236 0.802786 0.826558 0.848546 0.868742 0.887141 0.903735 0.918518 0.725137 0.754385 0.781865 0.807571 0.831494 0.853624 0.873955 0.892477 0.909182 0.924063 1.32604e-17 1.30823e-17 1.30787e-17 1.31231e-17 1.30888e-17 1.28491e-17 1.22776e-17 1.12474e-17 9.63202e-18 7.30478e-18 0.0142411 0.0134118 0.0125876 0.0117684 0.0109542 0.0101449 0.00934057 0.00854118 0.00774671 0.00695713 0.0285156 0.0268561 0.0252066 0.0235669 0.021937 0.0203169 0.0187067 0.0171062 0.0155154 0.0139343 0.0428187 0.0403285 0.0378529 0.0353919 0.0329454 0.0305133 0.0280957 0.0256926 0.0233039 0.0209295 0.0571454 0.0538246 0.0505228 0.04724 0.0439761 0.0407312 0.0375052 0.0342982 0.0311102 0.0279411 0.0714909 0.0673401 0.0632123 0.0591076 0.055026 0.0509676 0.0469325 0.0429206 0.0389321 0.034967 0.0858503 0.0808705 0.0759175 0.0709912 0.0660919 0.0612198 0.0563749 0.0515575 0.0467676 0.0420055 0.100219 0.0944115 0.0886344 0.0828873 0.0771707 0.0714849 0.06583 0.0602065 0.0546146 0.0490546 0.114591 0.107959 0.101359 0.0947924 0.0882592 0.08176 0.0752952 0.0688654 0.062471 0.0561124 0.128963 0.121508 0.114088 0.106703 0.0993542 0.0920422 0.0847678 0.0775317 0.0703346 0.0631772 0.384681 0.401024 0.416662 0.431594 0.445822 0.459345 0.472165 0.484281 0.495696 0.506409 0.373803 0.389769 0.405061 0.419684 0.433643 0.446942 0.459585 0.471578 0.482924 0.493629 0.363052 0.378652 0.393613 0.407943 0.42165 0.434742 0.447227 0.459115 0.470413 0.48113 0.352413 0.367659 0.382301 0.39635 0.409818 0.422717 0.435058 0.446855 0.458119 0.468862 0.341874 0.356775 0.371107 0.384884 0.398122 0.410837 0.423044 0.434759 0.445996 0.456771 0.331421 0.345984 0.360012 0.373524 0.386539 0.399076 0.411152 0.422787 0.433998 0.444805 0.321043 0.33527 0.348998 0.362249 0.375043 0.387403 0.399348 0.4109 0.422081 0.432912 0.310727 0.32462 0.338049 0.351038 0.36361 0.37579 0.387599 0.399061 0.4102 0.421039 0.300459 0.314017 0.327145 0.33987 0.352216 0.364208 0.375871 0.387229 0.398309 0.409134 0.290226 0.303446 0.31627 0.328725 0.340835 0.352629 0.36413 0.375366 0.386363 0.397145 0.197608 0.207369 0.21697 0.226427 0.235755 0.244969 0.254084 0.263115 0.272077 0.280986 0.187026 0.196331 0.205495 0.214532 0.223455 0.232277 0.241013 0.249675 0.258277 0.266832 0.176357 0.18519 0.193899 0.202496 0.210993 0.219402 0.227735 0.236004 0.244222 0.252401 0.165608 0.173954 0.182191 0.190329 0.198381 0.206356 0.214266 0.22212 0.229931 0.237709 0.154787 0.162631 0.17038 0.178043 0.185631 0.193153 0.20062 0.208039 0.215422 0.222778 0.1439 0.151229 0.158476 0.165649 0.172757 0.179808 0.186812 0.193778 0.200713 0.207627 0.132955 0.139757 0.146488 0.153156 0.159769 0.166334 0.172859 0.179353 0.185822 0.192275 0.121958 0.128223 0.134427 0.140577 0.146681 0.152744 0.158775 0.164781 0.170767 0.176743 0.110916 0.116634 0.122301 0.127922 0.133504 0.139053 0.144576 0.150078 0.155567 0.161049 0.0998361 0.105 0.11012 0.115202 0.120252 0.125275 0.130276 0.135263 0.14024 0.145213 3.7291e-17 0.0372813 0.0744095 0.111313 0.147919 0.184157 0.219955 0.25524 0.289941 0.323986 3.6624e-17 0.0366058 0.0730532 0.109273 0.145194 0.180748 0.215864 0.250473 0.284505 0.31789 3.59471e-17 0.0359191 0.0716759 0.107202 0.142431 0.177293 0.211721 0.245648 0.279005 0.311724 3.526e-17 0.035222 0.0702787 0.105104 0.139632 0.173796 0.207531 0.24077 0.273447 0.305496 3.45626e-17 0.0345151 0.0688631 0.10298 0.1368 0.170261 0.203297 0.235844 0.267837 0.299213 3.38546e-17 0.0337989 0.0674302 0.100831 0.133939 0.16669 0.199023 0.230875 0.262181 0.292881 3.3136e-17 0.0330742 0.0659814 0.0986603 0.13105 0.163088 0.194714 0.225867 0.256485 0.286508 3.24064e-17 0.0323416 0.0645179 0.0964691 0.128135 0.159457 0.190374 0.220827 0.250755 0.2801 3.16657e-17 0.0316016 0.0630409 0.0942595 0.125199 0.155801 0.186007 0.215758 0.244997 0.273664 3.09136e-17 0.0308551 0.0615519 0.0920335 0.122243 0.152123 0.181616 0.210666 0.239216 0.267208 0.592108 0.61679 0.640285 0.662552 0.683551 0.703239 0.721575 0.73852 0.754031 0.768068 0.580808 0.60503 0.628094 0.64996 0.670586 0.689932 0.707956 0.724619 0.739878 0.753694 0.569376 0.593126 0.615747 0.637198 0.657439 0.676428 0.694126 0.710492 0.725486 0.739067 0.557832 0.581103 0.603271 0.624297 0.64414 0.662762 0.680123 0.696182 0.7109 0.724237 0.5462 0.568983 0.59069 0.611283 0.630722 0.648968 0.665983 0.681727 0.696162 0.709249 0.534499 0.556791 0.578032 0.598186 0.617214 0.635079 0.651743 0.667167 0.681316 0.69415 0.522752 0.544549 0.565322 0.585034 0.603648 0.621129 0.63744 0.652544 0.666406 0.678989 0.510979 0.532282 0.552586 0.571855 0.590056 0.607152 0.623111 0.637897 0.651475 0.663811 0.499202 0.520014 0.53985 0.558679 0.576467 0.593183 0.608793 0.623265 0.636567 0.648666 0.487444 0.507767 0.52714 0.545533 0.562914 0.579254 0.594523 0.608691 0.621726 0.633599 0.823554 0.838419 0.852862 0.866841 0.880317 0.893248 0.905595 0.917318 0.928375 0.938727 0.821445 0.836327 0.850791 0.864797 0.878304 0.89127 0.903656 0.915421 0.926524 0.936924 0.817656 0.832545 0.847024 0.861053 0.874589 0.887593 0.900022 0.911835 0.922991 0.933448 0.812223 0.827105 0.84159 0.855634 0.869197 0.882235 0.894708 0.906571 0.917784 0.928303 0.805181 0.820041 0.834518 0.848569 0.86215 0.875217 0.887729 0.899641 0.91091 0.921493 0.796566 0.811387 0.82584 0.839883 0.85347 0.866558 0.879101 0.891056 0.902378 0.913023 0.786414 0.801174 0.815586 0.829604 0.843182 0.856276 0.86884 0.880828 0.892195 0.902895 0.77476 0.789436 0.803784 0.817757 0.831309 0.844392 0.856961 0.868969 0.880369 0.891114 0.761641 0.776207 0.790466 0.80437 0.817873 0.830925 0.84348 0.85549 0.866907 0.877683 0.747092 0.761519 0.775661 0.78947 0.802897 0.815894 0.828412 0.840403 0.851817 0.862607 0.560267 0.571996 0.583629 0.595119 0.606422 0.617492 0.628283 0.638749 0.648845 0.658525 0.534334 0.545597 0.556779 0.567835 0.578722 0.589395 0.59981 0.609924 0.619693 0.629072 0.50756 0.518326 0.529022 0.539608 0.550041 0.560279 0.570281 0.580004 0.589406 0.598445 0.479986 0.490224 0.500404 0.510486 0.520431 0.530199 0.53975 0.549044 0.558042 0.566704 0.451654 0.461336 0.470969 0.480517 0.489941 0.499205 0.508271 0.517103 0.525661 0.53391 0.422605 0.431705 0.440764 0.449748 0.458622 0.467351 0.4759 0.484236 0.492322 0.500124 0.392882 0.401375 0.409834 0.418227 0.426522 0.434688 0.442691 0.450501 0.458084 0.465409 0.362525 0.370389 0.378224 0.386002 0.393693 0.401269 0.408698 0.415954 0.423005 0.429824 0.331577 0.338791 0.345981 0.353121 0.360185 0.367145 0.373977 0.380652 0.387146 0.39343 0.300079 0.306624 0.31315 0.319632 0.326046 0.332371 0.33858 0.344653 0.350564 0.356289 4.52586e-17 0.0453573 0.0907544 0.136076 0.181206 0.226029 0.27043 0.314293 0.357502 0.399941 4.51337e-17 0.0452228 0.0904706 0.13563 0.180588 0.225231 0.269445 0.313118 0.356136 0.398386 4.496e-17 0.0450393 0.0900899 0.13504 0.17978 0.224198 0.268182 0.311622 0.354408 0.396426 4.47396e-17 0.0448093 0.0896166 0.134313 0.178791 0.22294 0.266652 0.309818 0.35233 0.394079 4.44746e-17 0.0445348 0.0890553 0.133455 0.177628 0.221467 0.264866 0.307719 0.349919 0.391359 4.41671e-17 0.0442182 0.0884103 0.132472 0.1763 0.219789 0.262837 0.305337 0.347188 0.388284 4.3819e-17 0.0438617 0.087686 0.131371 0.174816 0.217918 0.260576 0.302688 0.344153 0.384869 4.34326e-17 0.0434677 0.0868868 0.130158 0.173183 0.215861 0.258094 0.299783 0.340828 0.38113 4.30098e-17 0.0430383 0.0860172 0.12884 0.17141 0.213631 0.255405 0.296637 0.337228 0.377084 4.25527e-17 0.0425758 0.0850815 0.127423 0.169506 0.211236 0.252519 0.293262 0.333369 0.372747 0.731471 0.761085 0.788998 0.81519 0.839644 0.862343 0.883266 0.902397 0.919717 0.935208 0.728565 0.758102 0.785956 0.812106 0.836533 0.859218 0.88014 0.89928 0.916618 0.932135 0.724958 0.754395 0.782168 0.808257 0.832639 0.855295 0.876201 0.895338 0.912683 0.928216 0.72067 0.749983 0.777655 0.803663 0.827984 0.850594 0.87147 0.89059 0.90793 0.923468 0.715724 0.74489 0.772439 0.798346 0.822586 0.845135 0.865966 0.885055 0.902377 0.917908 0.710143 0.739138 0.766542 0.792327 0.816468 0.838936 0.859706 0.87875 0.896042 0.911554 0.703948 0.732748 0.759984 0.785627 0.809648 0.832019 0.852711 0.871695 0.888942 0.904424 0.697161 0.725742 0.752787 0.778266 0.802148 0.824403 0.845 0.863908 0.881096 0.896535 0.689805 0.718141 0.744972 0.770265 0.793988 0.816107 0.836591 0.855407 0.872522 0.887905 0.681901 0.709969 0.736562 0.761646 0.785187 0.807151 0.827503 0.84621 0.863238 0.878551 0.996193 0.998279 0.999463 0.999754 0.999159 0.997687 0.995344 0.992139 0.98808 0.983174 0.994938 0.997098 0.99836 0.998728 0.99821 0.996812 0.994541 0.991404 0.987406 0.982554 0.992152 0.994411 0.995775 0.996246 0.995831 0.994533 0.992357 0.989309 0.985392 0.980612 0.987806 0.990185 0.991671 0.992267 0.991976 0.9908 0.988741 0.985801 0.981983 0.977289 0.981873 0.984386 0.986012 0.98675 0.986602 0.985565 0.983639 0.980825 0.977121 0.972528 0.974322 0.976981 0.978759 0.979654 0.979662 0.978778 0.977001 0.974327 0.970751 0.966271 0.965126 0.967938 0.969877 0.970937 0.971111 0.970392 0.968774 0.966251 0.962815 0.958461 0.954255 0.957224 0.959328 0.960558 0.960905 0.960357 0.958907 0.956543 0.953258 0.94904 0.94168 0.944805 0.947075 0.948477 0.948998 0.948625 0.947347 0.94515 0.942022 0.93795 0.927373 0.93065 0.933081 0.934651 0.935344 0.935147 0.934042 0.932015 0.929051 0.925135 0.722083 0.726091 0.729399 0.731983 0.733816 0.734873 0.735128 0.734555 0.73313 0.730826 0.691175 0.695158 0.698468 0.70108 0.702968 0.704106 0.704468 0.70403 0.702764 0.700645 0.658778 0.662709 0.665997 0.668616 0.67054 0.671744 0.672201 0.671886 0.670773 0.668837 0.624962 0.628815 0.632057 0.634662 0.636603 0.637856 0.638395 0.638194 0.637227 0.635469 0.5898 0.59355 0.596722 0.59929 0.60123 0.602515 0.60312 0.603021 0.602192 0.600607 0.553365 0.556986 0.560063 0.562573 0.56449 0.56579 0.566448 0.566438 0.565737 0.564319 0.515729 0.519194 0.522153 0.524582 0.526457 0.527753 0.528447 0.528513 0.527929 0.52667 0.476963 0.480247 0.483064 0.485389 0.4872 0.488474 0.489187 0.489316 0.488837 0.487728 0.437139 0.440218 0.442867 0.445067 0.446793 0.448025 0.448739 0.448914 0.448528 0.447559 0.396331 0.399178 0.401637 0.403687 0.405306 0.406475 0.407173 0.407378 0.40707 0.406228 0.384277 0.371036 0.357449 0.34356 0.329419 0.315071 0.300562 0.285941 0.271254 0.256547 0.404558 0.390675 0.376416 0.361831 0.346971 0.331886 0.316626 0.301241 0.285781 0.270296 0.424607 0.410092 0.395171 0.379899 0.36433 0.348516 0.332512 0.31637 0.300145 0.28389 0.444391 0.429249 0.413673 0.397721 0.38145 0.364916 0.348176 0.331287 0.314306 0.297291 0.463875 0.448107 0.43188 0.415254 0.398287 0.381041 0.363576 0.34595 0.328225 0.31046 0.483027 0.46663 0.449751 0.432453 0.414798 0.396849 0.378668 0.360318 0.341861 0.32336 0.501812 0.484777 0.467243 0.449275 0.430937 0.412293 0.393409 0.374347 0.355174 0.335953 0.520197 0.502511 0.484316 0.465677 0.44666 0.427331 0.407755 0.387997 0.368124 0.3482 0.538148 0.519793 0.500927 0.481615 0.461924 0.441918 0.421664 0.401226 0.380671 0.360065 0.555632 0.536585 0.517035 0.497046 0.476683 0.45601 0.435091 0.413992 0.392776 0.371508 0.685387 0.676264 0.665506 0.653247 0.63962 0.624759 0.608796 0.591865 0.574099 0.555632 0.707598 0.698147 0.686976 0.674224 0.660035 0.644551 0.627918 0.610283 0.591793 0.572598 0.729594 0.719656 0.707968 0.694661 0.679872 0.663746 0.646433 0.628088 0.608868 0.588933 0.751301 0.740698 0.728366 0.714416 0.698975 0.682178 0.664174 0.645119 0.625173 0.604505 0.772645 0.761184 0.748059 0.733359 0.717193 0.699687 0.680977 0.661216 0.640563 0.619184 0.793553 0.781032 0.766946 0.751368 0.734389 0.716119 0.696684 0.676224 0.654889 0.632838 0.813952 0.800163 0.784936 0.768334 0.750435 0.731335 0.711146 0.689991 0.668007 0.645337 0.833768 0.818504 0.801949 0.784164 0.765223 0.74521 0.724224 0.702372 0.679773 0.65655 0.852929 0.835989 0.817917 0.798781 0.778658 0.757632 0.73579 0.713228 0.690045 0.666346 0.871359 0.85256 0.832785 0.812125 0.790669 0.768507 0.745729 0.722424 0.698683 0.674594 0.555632 0.536585 0.517035 0.497046 0.476683 0.45601 0.435091 0.413992 0.392776 0.371508 0.572598 0.552837 0.53259 0.511919 0.490888 0.469558 0.447992 0.42625 0.404396 0.382492 0.588933 0.568446 0.5475 0.526155 0.504468 0.482499 0.460306 0.437948 0.415482 0.392969 0.604505 0.5833 0.561669 0.539666 0.517346 0.494763 0.471973 0.449028 0.425984 0.402895 0.619184 0.597286 0.574997 0.552367 0.529445 0.506283 0.48293 0.459435 0.43585 0.412223 0.632838 0.610289 0.587384 0.564169 0.540689 0.51699 0.493116 0.469114 0.445029 0.420906 0.645337 0.622197 0.598734 0.574988 0.551001 0.526814 0.502469 0.478007 0.45347 0.428898 0.65655 0.632896 0.608945 0.584735 0.560304 0.535689 0.510928 0.48606 0.461122 0.436152 0.666346 0.642273 0.617921 0.593325 0.568521 0.543545 0.518431 0.493215 0.467934 0.442622 0.674594 0.650214 0.625561 0.600671 0.575576 0.550313 0.524916 0.499418 0.473855 0.448262 0.674594 0.650214 0.625561 0.600671 0.575576 0.550313 0.524916 0.499418 0.473855 0.448262 0.681187 0.656624 0.631782 0.606697 0.581402 0.555934 0.530327 0.504617 0.47884 0.453029 0.686107 0.661481 0.636558 0.611375 0.585969 0.560377 0.534637 0.508786 0.482861 0.456899 0.689361 0.664781 0.639877 0.614689 0.589257 0.563622 0.537824 0.511902 0.485898 0.45985 0.690954 0.666519 0.641727 0.616622 0.591247 0.565646 0.539864 0.513944 0.487929 0.461864 0.690893 0.666692 0.642097 0.617157 0.591918 0.566429 0.540737 0.514889 0.488934 0.462918 0.689184 0.665295 0.640976 0.616277 0.591251 0.565948 0.540419 0.514717 0.488891 0.462993 0.685833 0.662325 0.638351 0.613966 0.589225 0.564181 0.53889 0.513404 0.487779 0.462069 0.680846 0.657776 0.634212 0.610208 0.585821 0.561108 0.536126 0.51093 0.485577 0.460124 0.674229 0.651647 0.628546 0.604985 0.581019 0.556707 0.532106 0.507272 0.482264 0.457138 0.842982 0.828152 0.812175 0.795123 0.777067 0.758078 0.738229 0.71759 0.696233 0.674229 0.830307 0.815858 0.800306 0.783718 0.766156 0.747684 0.728368 0.708271 0.687457 0.665991 0.815974 0.801909 0.786784 0.770657 0.753588 0.735635 0.716856 0.697311 0.677059 0.656157 0.799994 0.786318 0.771622 0.755959 0.739385 0.721954 0.703721 0.68474 0.665065 0.644752 0.782377 0.769098 0.754836 0.739642 0.723569 0.706667 0.688988 0.670584 0.651506 0.631805 0.763132 0.750261 0.736442 0.721726 0.706161 0.689797 