<VTKFile type="UnstructuredGrid"  version="0.1"   > 
<UnstructuredGrid> 
<Piece  NumberOfPoints="  25" NumberOfCells=" 16"> 
<Points> 
<DataArray  type="Float64"  NumberOfComponents="3"  format="ascii" > 
0.000000 -3.000000 0.0 
12.000000 -3.000000 0.0 
24.000000 -3.000000 0.0 
36.000000 -3.000000 0.0 
48.000000 -3.000000 0.0 
0.000000 -1.500000 0.0 
12.000000 -1.500000 0.0 
24.000000 -1.500000 0.0 
36.000000 -1.500000 0.0 
48.000000 -1.500000 0.0 
0.000000 0.000000 0.0 
12.000000 0.000000 0.0 
24.000000 0.000000 0.0 
36.000000 0.000000 0.0 
48.000000 0.000000 0.0 
0.000000 1.500000 0.0 
12.000000 1.500000 0.0 
24.000000 1.500000 0.0 
36.000000 1.500000 0.0 
48.000000 1.500000 0.0 
0.000000 3.000000 0.0 
12.000000 3.000000 0.0 
24.000000 3.000000 0.0 
36.000000 3.000000 0.0 
48.000000 3.000000 0.0 
</DataArray> 
</Points> 
<Cells> 
<DataArray  type="Int32"  Name="connectivity"  format="ascii"> 
0 1 6 5 
1 2 7 6 
2 3 8 7 
3 4 9 8 
5 6 11 10 
6 7 12 11 
7 8 13 12 
8 9 14 13 
10 11 16 15 
11 12 17 16 
12 13 18 17 
13 14 19 18 
15 16 21 20 
16 17 22 21 
17 18 23 22 
18 19 24 23 
</DataArray> 
<DataArray  type="Int32"  Name="offsets"  format="ascii"> 
4 
8 
12 
16 
20 
24 
28 
32 
36 
40 
44 
48 
52 
56 
60 
64 
</DataArray> 
<DataArray  type="UInt8"  Name="types"  format="ascii"> 
9 
9 
9 
9 
9 
9 
9 
9 
9 
9 
9 
9 
9 
9 
9 
9 
</DataArray> 
</Cells> 
<PointData  Vectors="sigma"> 
<DataArray  type="Float64"  Name="sigma" NumberOfComponents="3" format="ascii"> 
0.000000   0.000000   0.000000   
-11459.491267   -2943.241561   -3462.214191   
-2988.670639   2.558859   -140.244576   
-2125.430433   -33.898876   -217.378901   
-192.525580   -30.294694   -166.808065   
-2876.767557   -747.508482   -1665.659940   
-3237.729396   -745.885099   -1717.173402   
-2434.280052   -376.492612   -1032.284757   
-917.261793   -12.882932   -369.602164   
-564.654719   -17.042357   -443.321677   
-0.012008   -0.003525   -1656.541431   
-0.012001   -0.003490   -1716.923396   
-0.005990   -0.001696   -1059.703642   
0.000006   0.000026   -430.224459   
-0.000003   -0.000011   -518.346994   
2876.743456   747.501191   -1665.659977   
3237.705287   745.877779   -1717.173459   
2434.267986   376.488910   -1032.284813   
917.261788   12.882907   -369.602177   
564.654721   17.042361   -443.321669   
11459.443253   2943.227414   -3462.213907   
1494.335320   -1.279322   -70.122184   
6792.436847   1488.563137   -1839.796411   
1590.598102   13.868012   -153.526226   
2125.430441   33.898859   -217.378916   
</DataArray> 
<DataArray  type="Float64"  Name="U" NumberOfComponents="3" format="ascii"> 
  0.00000000     0.00000000     0.00000000   
 -0.00211530    -0.00599258    -0.00599258   
 -0.00482850    -0.02174309    -0.02174309   
 -0.00584943    -0.04337930    -0.04337930   
 -0.00630917    -0.06809330    -0.06809330   
  0.00000000     0.00000000     0.00000000   
 -0.00106101    -0.00597444    -0.00597444   
 -0.00241117    -0.02170962    -0.02170962   
 -0.00291807    -0.04335659    -0.04335659   
 -0.00314189    -0.06809261    -0.06809261   
  0.00000000     0.00000000     0.00000000   
 -0.00000000    -0.00596866    -0.00596866   
 -0.00000001    -0.02169863    -0.02169863   
 -0.00000001    -0.04334897    -0.04334897   
 -0.00000001    -0.06809262    -0.06809262   
  0.00000000     0.00000000     0.00000000   
  0.00106100    -0.00597444    -0.00597444   
  0.00241115    -0.02170962    -0.02170962   
  0.00291805    -0.04335659    -0.04335659   
  0.00314187    -0.06809261    -0.06809261   
  0.00000000     0.00000000     0.00000000   
  0.00211530    -0.00599258    -0.00599258   
  0.00482848    -0.02174309    -0.02174309   
  0.00584942    -0.04337930    -0.04337930   
  0.00630916    -0.06809330    -0.06809330   
</DataArray> 
</PointData> 
</Piece> 
</UnstructuredGrid> 
</VTKFile> 
