<VTKFile type="UnstructuredGrid"  version="0.1"   > 
<UnstructuredGrid> 
<Piece  NumberOfPoints="  1105" NumberOfCells=" 1024"> 
<Points> 
<DataArray  type="Float64"  NumberOfComponents="3"  format="ascii" > 
0.000000 -3.000000 0.0 
0.375000 -3.000000 0.0 
0.750000 -3.000000 0.0 
1.125000 -3.000000 0.0 
1.500000 -3.000000 0.0 
1.875000 -3.000000 0.0 
2.250000 -3.000000 0.0 
2.625000 -3.000000 0.0 
3.000000 -3.000000 0.0 
3.375000 -3.000000 0.0 
3.750000 -3.000000 0.0 
4.125000 -3.000000 0.0 
4.500000 -3.000000 0.0 
4.875000 -3.000000 0.0 
5.250000 -3.000000 0.0 
5.625000 -3.000000 0.0 
6.000000 -3.000000 0.0 
6.375000 -3.000000 0.0 
6.750000 -3.000000 0.0 
7.125000 -3.000000 0.0 
7.500000 -3.000000 0.0 
7.875000 -3.000000 0.0 
8.250000 -3.000000 0.0 
8.625000 -3.000000 0.0 
9.000000 -3.000000 0.0 
9.375000 -3.000000 0.0 
9.750000 -3.000000 0.0 
10.125000 -3.000000 0.0 
10.500000 -3.000000 0.0 
10.875000 -3.000000 0.0 
11.250000 -3.000000 0.0 
11.625000 -3.000000 0.0 
12.000000 -3.000000 0.0 
12.375000 -3.000000 0.0 
12.750000 -3.000000 0.0 
13.125000 -3.000000 0.0 
13.500000 -3.000000 0.0 
13.875000 -3.000000 0.0 
14.250000 -3.000000 0.0 
14.625000 -3.000000 0.0 
15.000000 -3.000000 0.0 
15.375000 -3.000000 0.0 
15.750000 -3.000000 0.0 
16.125000 -3.000000 0.0 
16.500000 -3.000000 0.0 
16.875000 -3.000000 0.0 
17.250000 -3.000000 0.0 
17.625000 -3.000000 0.0 
18.000000 -3.000000 0.0 
18.375000 -3.000000 0.0 
18.750000 -3.000000 0.0 
19.125000 -3.000000 0.0 
19.500000 -3.000000 0.0 
19.875000 -3.000000 0.0 
20.250000 -3.000000 0.0 
20.625000 -3.000000 0.0 
21.000000 -3.000000 0.0 
21.375000 -3.000000 0.0 
21.750000 -3.000000 0.0 
22.125000 -3.000000 0.0 
22.500000 -3.000000 0.0 
22.875000 -3.000000 0.0 
23.250000 -3.000000 0.0 
23.625000 -3.000000 0.0 
24.000000 -3.000000 0.0 
0.000000 -2.625000 0.0 
0.375000 -2.625000 0.0 
0.750000 -2.625000 0.0 
1.125000 -2.625000 0.0 
1.500000 -2.625000 0.0 
1.875000 -2.625000 0.0 
2.250000 -2.625000 0.0 
2.625000 -2.625000 0.0 
3.000000 -2.625000 0.0 
3.375000 -2.625000 0.0 
3.750000 -2.625000 0.0 
4.125000 -2.625000 0.0 
4.500000 -2.625000 0.0 
4.875000 -2.625000 0.0 
5.250000 -2.625000 0.0 
5.625000 -2.625000 0.0 
6.000000 -2.625000 0.0 
6.375000 -2.625000 0.0 
6.750000 -2.625000 0.0 
7.125000 -2.625000 0.0 
7.500000 -2.625000 0.0 
7.875000 -2.625000 0.0 
8.250000 -2.625000 0.0 
8.625000 -2.625000 0.0 
9.000000 -2.625000 0.0 
9.375000 -2.625000 0.0 
9.750000 -2.625000 0.0 
10.125000 -2.625000 0.0 
10.500000 -2.625000 0.0 
10.875000 -2.625000 0.0 
11.250000 -2.625000 0.0 
11.625000 -2.625000 0.0 
12.000000 -2.625000 0.0 
12.375000 -2.625000 0.0 
12.750000 -2.625000 0.0 
13.125000 -2.625000 0.0 
13.500000 -2.625000 0.0 
13.875000 -2.625000 0.0 
14.250000 -2.625000 0.0 
14.625000 -2.625000 0.0 
15.000000 -2.625000 0.0 
15.375000 -2.625000 0.0 
15.750000 -2.625000 0.0 
16.125000 -2.625000 0.0 
16.500000 -2.625000 0.0 
16.875000 -2.625000 0.0 
17.250000 -2.625000 0.0 
17.625000 -2.625000 0.0 
18.000000 -2.625000 0.0 
18.375000 -2.625000 0.0 
18.750000 -2.625000 0.0 
19.125000 -2.625000 0.0 
19.500000 -2.625000 0.0 
19.875000 -2.625000 0.0 
20.250000 -2.625000 0.0 
20.625000 -2.625000 0.0 
21.000000 -2.625000 0.0 
21.375000 -2.625000 0.0 
21.750000 -2.625000 0.0 
22.125000 -2.625000 0.0 
22.500000 -2.625000 0.0 
22.875000 -2.625000 0.0 
23.250000 -2.625000 0.0 
23.625000 -2.625000 0.0 
24.000000 -2.625000 0.0 
0.000000 -2.250000 0.0 
0.375000 -2.250000 0.0 
0.750000 -2.250000 0.0 
1.125000 -2.250000 0.0 
1.500000 -2.250000 0.0 
1.875000 -2.250000 0.0 
2.250000 -2.250000 0.0 
2.625000 -2.250000 0.0 
3.000000 -2.250000 0.0 
3.375000 -2.250000 0.0 
3.750000 -2.250000 0.0 
4.125000 -2.250000 0.0 
4.500000 -2.250000 0.0 
4.875000 -2.250000 0.0 
5.250000 -2.250000 0.0 
5.625000 -2.250000 0.0 
6.000000 -2.250000 0.0 
6.375000 -2.250000 0.0 
6.750000 -2.250000 0.0 
7.125000 -2.250000 0.0 
7.500000 -2.250000 0.0 
7.875000 -2.250000 0.0 
8.250000 -2.250000 0.0 
8.625000 -2.250000 0.0 
9.000000 -2.250000 0.0 
9.375000 -2.250000 0.0 
9.750000 -2.250000 0.0 
10.125000 -2.250000 0.0 
10.500000 -2.250000 0.0 
10.875000 -2.250000 0.0 
11.250000 -2.250000 0.0 
11.625000 -2.250000 0.0 
12.000000 -2.250000 0.0 
12.375000 -2.250000 0.0 
12.750000 -2.250000 0.0 
13.125000 -2.250000 0.0 
13.500000 -2.250000 0.0 
13.875000 -2.250000 0.0 
14.250000 -2.250000 0.0 
14.625000 -2.250000 0.0 
15.000000 -2.250000 0.0 
15.375000 -2.250000 0.0 
15.750000 -2.250000 0.0 
16.125000 -2.250000 0.0 
16.500000 -2.250000 0.0 
16.875000 -2.250000 0.0 
17.250000 -2.250000 0.0 
17.625000 -2.250000 0.0 
18.000000 -2.250000 0.0 
18.375000 -2.250000 0.0 
18.750000 -2.250000 0.0 
19.125000 -2.250000 0.0 
19.500000 -2.250000 0.0 
19.875000 -2.250000 0.0 
20.250000 -2.250000 0.0 
20.625000 -2.250000 0.0 
21.000000 -2.250000 0.0 
21.375000 -2.250000 0.0 
21.750000 -2.250000 0.0 
22.125000 -2.250000 0.0 
22.500000 -2.250000 0.0 
22.875000 -2.250000 0.0 
23.250000 -2.250000 0.0 
23.625000 -2.250000 0.0 
24.000000 -2.250000 0.0 
0.000000 -1.875000 0.0 
0.375000 -1.875000 0.0 
0.750000 -1.875000 0.0 
1.125000 -1.875000 0.0 
1.500000 -1.875000 0.0 
1.875000 -1.875000 0.0 
2.250000 -1.875000 0.0 
2.625000 -1.875000 0.0 
3.000000 -1.875000 0.0 
3.375000 -1.875000 0.0 
3.750000 -1.875000 0.0 
4.125000 -1.875000 0.0 
4.500000 -1.875000 0.0 
4.875000 -1.875000 0.0 
5.250000 -1.875000 0.0 
5.625000 -1.875000 0.0 
6.000000 -1.875000 0.0 
6.375000 -1.875000 0.0 
6.750000 -1.875000 0.0 
7.125000 -1.875000 0.0 
7.500000 -1.875000 0.0 
7.875000 -1.875000 0.0 
8.250000 -1.875000 0.0 
8.625000 -1.875000 0.0 
9.000000 -1.875000 0.0 
9.375000 -1.875000 0.0 
9.750000 -1.875000 0.0 
10.125000 -1.875000 0.0 
10.500000 -1.875000 0.0 
10.875000 -1.875000 0.0 
11.250000 -1.875000 0.0 
11.625000 -1.875000 0.0 
12.000000 -1.875000 0.0 
12.375000 -1.875000 0.0 
12.750000 -1.875000 0.0 
13.125000 -1.875000 0.0 
13.500000 -1.875000 0.0 
13.875000 -1.875000 0.0 
14.250000 -1.875000 0.0 
14.625000 -1.875000 0.0 
15.000000 -1.875000 0.0 
15.375000 -1.875000 0.0 
15.750000 -1.875000 0.0 
16.125000 -1.875000 0.0 
16.500000 -1.875000 0.0 
16.875000 -1.875000 0.0 
17.250000 -1.875000 0.0 
17.625000 -1.875000 0.0 
18.000000 -1.875000 0.0 
18.375000 -1.875000 0.0 
18.750000 -1.875000 0.0 
19.125000 -1.875000 0.0 
19.500000 -1.875000 0.0 
19.875000 -1.875000 0.0 
20.250000 -1.875000 0.0 
20.625000 -1.875000 0.0 
21.000000 -1.875000 0.0 
21.375000 -1.875000 0.0 
21.750000 -1.875000 0.0 
22.125000 -1.875000 0.0 
22.500000 -1.875000 0.0 
22.875000 -1.875000 0.0 
23.250000 -1.875000 0.0 
23.625000 -1.875000 0.0 
24.000000 -1.875000 0.0 
0.000000 -1.500000 0.0 
0.375000 -1.500000 0.0 
0.750000 -1.500000 0.0 
1.125000 -1.500000 0.0 
1.500000 -1.500000 0.0 
1.875000 -1.500000 0.0 
2.250000 -1.500000 0.0 
2.625000 -1.500000 0.0 
3.000000 -1.500000 0.0 
3.375000 -1.500000 0.0 
3.750000 -1.500000 0.0 
4.125000 -1.500000 0.0 
4.500000 -1.500000 0.0 
4.875000 -1.500000 0.0 
5.250000 -1.500000 0.0 
5.625000 -1.500000 0.0 
6.000000 -1.500000 0.0 
6.375000 -1.500000 0.0 
6.750000 -1.500000 0.0 
7.125000 -1.500000 0.0 
7.500000 -1.500000 0.0 
7.875000 -1.500000 0.0 
8.250000 -1.500000 0.0 
8.625000 -1.500000 0.0 
9.000000 -1.500000 0.0 
9.375000 -1.500000 0.0 
9.750000 -1.500000 0.0 
10.125000 -1.500000 0.0 
10.500000 -1.500000 0.0 
10.875000 -1.500000 0.0 
11.250000 -1.500000 0.0 
11.625000 -1.500000 0.0 
12.000000 -1.500000 0.0 
12.375000 -1.500000 0.0 
12.750000 -1.500000 0.0 
13.125000 -1.500000 0.0 
13.500000 -1.500000 0.0 
13.875000 -1.500000 0.0 
14.250000 -1.500000 0.0 
14.625000 -1.500000 0.0 
15.000000 -1.500000 0.0 
15.375000 -1.500000 0.0 
15.750000 -1.500000 0.0 
16.125000 -1.500000 0.0 
16.500000 -1.500000 0.0 
16.875000 -1.500000 0.0 
17.250000 -1.500000 0.0 
17.625000 -1.500000 0.0 
18.000000 -1.500000 0.0 
18.375000 -1.500000 0.0 
18.750000 -1.500000 0.0 
19.125000 -1.500000 0.0 
19.500000 -1.500000 0.0 
19.875000 -1.500000 0.0 
20.250000 -1.500000 0.0 
20.625000 -1.500000 0.0 
21.000000 -1.500000 0.0 
21.375000 -1.500000 0.0 
21.750000 -1.500000 0.0 
22.125000 -1.500000 0.0 
22.500000 -1.500000 0.0 
22.875000 -1.500000 0.0 
23.250000 -1.500000 0.0 
23.625000 -1.500000 0.0 
24.000000 -1.500000 0.0 
0.000000 -1.125000 0.0 
0.375000 -1.125000 0.0 
0.750000 -1.125000 0.0 
1.125000 -1.125000 0.0 
1.500000 -1.125000 0.0 
1.875000 -1.125000 0.0 
2.250000 -1.125000 0.0 
2.625000 -1.125000 0.0 
3.000000 -1.125000 0.0 
3.375000 -1.125000 0.0 
3.750000 -1.125000 0.0 
4.125000 -1.125000 0.0 
4.500000 -1.125000 0.0 
4.875000 -1.125000 0.0 
5.250000 -1.125000 0.0 
5.625000 -1.125000 0.0 
6.000000 -1.125000 0.0 
6.375000 -1.125000 0.0 
6.750000 -1.125000 0.0 
7.125000 -1.125000 0.0 
7.500000 -1.125000 0.0 
7.875000 -1.125000 0.0 
8.250000 -1.125000 0.0 
8.625000 -1.125000 0.0 
9.000000 -1.125000 0.0 
9.375000 -1.125000 0.0 
9.750000 -1.125000 0.0 
10.125000 -1.125000 0.0 
10.500000 -1.125000 0.0 
10.875000 -1.125000 0.0 
11.250000 -1.125000 0.0 
11.625000 -1.125000 0.0 
12.000000 -1.125000 0.0 
12.375000 -1.125000 0.0 
12.750000 -1.125000 0.0 
13.125000 -1.125000 0.0 
13.500000 -1.125000 0.0 
13.875000 -1.125000 0.0 
14.250000 -1.125000 0.0 
14.625000 -1.125000 0.0 
15.000000 -1.125000 0.0 
15.375000 -1.125000 0.0 
15.750000 -1.125000 0.0 
16.125000 -1.125000 0.0 
16.500000 -1.125000 0.0 
16.875000 -1.125000 0.0 
17.250000 -1.125000 0.0 
17.625000 -1.125000 0.0 
18.000000 -1.125000 0.0 
18.375000 -1.125000 0.0 
18.750000 -1.125000 0.0 
19.125000 -1.125000 0.0 
19.500000 -1.125000 0.0 
19.875000 -1.125000 0.0 
20.250000 -1.125000 0.0 
20.625000 -1.125000 0.0 
21.000000 -1.125000 0.0 
21.375000 -1.125000 0.0 
21.750000 -1.125000 0.0 
22.125000 -1.125000 0.0 
22.500000 -1.125000 0.0 
22.875000 -1.125000 0.0 
23.250000 -1.125000 0.0 
23.625000 -1.125000 0.0 
24.000000 -1.125000 0.0 
0.000000 -0.750000 0.0 
0.375000 -0.750000 0.0 
0.750000 -0.750000 0.0 
1.125000 -0.750000 0.0 
1.500000 -0.750000 0.0 
1.875000 -0.750000 0.0 
2.250000 -0.750000 0.0 
2.625000 -0.750000 0.0 
[...]
<PointData  Vectors="sigma"> 
<DataArray  type="Float64"  Name="sigma" NumberOfComponents="3" format="ascii"> 
-54640.879448   -16392.263834   -12641.918148   
-30337.377445   485.845308   496.461025   
-30175.586943   305.913331   80.172571   
-30153.768677   -189.365361   -10.891269   
-30123.370512   86.008126   3.840458   
-30175.210582   -48.130214   2.243697   
-30084.235309   20.665498   -2.638427   
-29992.614147   -11.486023   1.925706   
-29826.949709   4.706629   -1.422076   
-29646.814001   -2.714216   0.678337   
-29435.295106   1.048610   -0.489783   
-29213.080066   -0.643473   0.165812   
-28978.555298   0.238649   -0.142895   
-28738.575254   -0.153370   0.026923   
-28494.044214   0.059206   -0.039262   
-28247.244485   -0.035937   0.000468   
-27998.883438   0.017025   -0.010839   
-27749.724120   -0.007745   -0.001729   
-27500.087489   0.005704   -0.003061   
-27250.220174   -0.001264   -0.000820   
-27000.235184   0.002105   -0.000844   
-26750.204723   0.000007   -0.000228   
-26500.159738   0.000800   -0.000200   
-26250.117000   0.000136   -0.000023   
-26000.081424   0.000299   -0.000026   
-25750.054506   0.000082   0.000021   
-25500.035027   0.000105   0.000011   
-25250.021543   0.000033   0.000019   
-25000.012392   0.000031   0.000011   
-24750.006317   0.000007   0.000009   
-24500.002359   0.000003   0.000003   
-24250.000000   -0.000007   -0.000003   
-23999.999161   -0.000010   -0.000012   
-23750.000349   -0.000012   -0.000024   
-23500.004894   -0.000009   -0.000045   
-23250.015379   0.000006   -0.000073   
-23000.036348   0.000035   -0.000121   
-22750.075322   0.000109   -0.000183   
-22500.144395   0.000226   -0.000283   
-22250.262192   0.000489   -0.000400   
-22000.456772   0.000848   -0.000561   
-21750.768352   0.001661   -0.000739   
-21501.252702   0.002557   -0.000819   
-21251.981611   0.004888   -0.001003   
-21003.039969   0.006550   -0.000174   
-20754.510571   0.013119   -0.000160   
-20506.438004   0.013846   0.004697   
-20258.750398   0.033271   0.005685   
-20011.113734   0.019536   0.023350   
-19762.624986   0.083577   0.030572   
-19511.423307   -0.014985   0.075593   
-19253.521348   0.222794   0.127816   
-18982.317779   -0.276202   0.174087   
-18683.945950   0.669676   0.508769   
-18339.363381   -1.529541   0.178372   
-17905.442287   2.242487   1.993216   
-17334.784259   -6.643910   -0.875839   
-16502.296364   7.684529   7.455810   
-15304.343940   -25.468187   -7.323288   
-13408.917857   25.363717   24.603278   
-10648.652014   -81.758030   -38.407955   
-6435.343621   108.916941   54.035866   
-1545.471919   -95.948989   -133.708161   
1517.319253   208.487050   74.118713   
-1342.919799   -889.803789   -380.993185   
-27923.478039   -5078.935338   -2984.233277   
-28117.732182   -3182.447094   -2296.854148   
-27967.440838   -805.855200   -1078.390333   
-27359.128700   -191.373867   -380.504865   
-26954.619703   -34.645302   -173.483101   
-26705.736090   1.468422   -129.404512   
-26509.835406   14.435485   -135.103510   
-26332.006320   13.721501   -155.360191   
-26150.684427   11.965538   -176.038865   
-25963.116658   8.877934   -193.594919   
-25767.168444   6.441162   -206.847830   
-25564.692001   4.405286   -216.423983   
-25356.862459   2.939186   -222.984228   
-25145.293510   1.896672   -227.363482   
-24931.081572   1.190463   -230.180744   
-24715.130744   0.726573   -231.950468   
-24498.049559   0.429518   -233.025946   
-24280.262756   0.245603   -233.661529   
-24062.046593   0.134498   -234.023199   
-23843.577501   0.069756   -234.220776   
-23624.964945   0.033318   -234.322551   
-23406.274273   0.013770   -234.370775   
-23187.543656   0.003937   -234.390333   
-22968.794266   -0.000539   -234.395592   
-22750.037428   -0.002197   -234.394414   
-22531.278729   -0.002495   -234.390916   
-22312.520665   -0.002210   -234.387069   
-22093.764117   -0.001751   -234.383694   
-21875.009220   -0.001311   -234.381014   
-21656.255827   -0.000981   -234.378959   
-21437.503775   -0.000809   -234.377311   
-21218.753033   -0.000840   -234.375752   
-21000.003829   -0.001145   -234.373849   
-20781.256782   -0.001843   -234.370990   
-20562.513083   -0.003133   -234.366272   
-20343.774767   -0.005317   -234.358342   
-20125.045075   -0.008839   -234.345187   
-19906.328942   -0.014309   -234.323872   
-19687.633570   -0.022514   -234.290269   
-19468.968993   -0.034358   -234.238858   
-19250.348399   -0.050695   -234.162778   
-19031.787630   -0.071858   -234.054527   
-18813.302969   -0.096815   -233.907967   
-18594.905051   -0.121259   -233.723006   
-18376.586061   -0.134650   -233.514849   
-18158.293755   -0.114092   -233.331977   
-17939.884306   -0.015597   -233.287550   
-17721.037087   0.242953   -233.615484   
-17501.111120   0.804979   -234.761438   
-17278.904524   1.917280   -237.536354   
-17052.270106   3.986869   -243.351828   
-16817.513025   7.674241   -254.598593   
-16568.470646   14.022650   -275.199865   
-16295.188290   24.648470   -311.453696   
-15981.969254   41.992687   -373.213102   
-15605.046289   69.685835   -475.512884   
-15129.109433   112.699114   -640.633465   
-14505.746047   177.548934   -899.911252   
-13668.927770   268.549599   -1293.480414   
-12545.830138   378.248057   -1859.483682   
-11038.289349   440.923275   -2590.483629   
-9021.261822   231.015237   -3310.479008   
-6039.722011   -588.339482   -3369.227277   
-2751.617604   -339.061509   -2129.532970   
-1293.925520   514.499402   -1150.226465   
-22934.983373   -5072.840297   -1707.642997   
-23384.647441   -3734.988179   -1643.539337   
-23846.789078   -1643.415585   -1279.056987   
-23724.696394   -596.837942   -781.584562   
-23437.343992   -188.084480   -494.706302   
-23155.084384   -33.598302   -376.902146   
-22911.203371   18.518258   -345.694270   
-22694.673849   32.951936   -349.833800   
-22495.191028   31.731452   -366.367717   
-22303.730036   26.134532   -384.285344   
-22116.340605   19.602834   -399.888459   
-21930.246729   13.986997   -411.952629   
-21744.524713   9.549998   -420.750032   
-21558.582673   6.315744   -426.842868   
-21372.332303   4.046578   -430.922713   
-21185.742436   2.520089   -433.561191   
-20998.881438   1.522798   -435.219975   
-20811.808518   0.891356   -436.230760   
-20624.586165   0.502756   -436.828136   
-20437.260434   0.270899   -437.168597   
-20249.866800   0.137137   -437.354564   
-20062.429569   0.063008   -437.450475   
-19874.965337   0.023989   -437.495928   
-19687.484839   0.004915   -437.514406   
-19499.994882   -0.003321   -437.519398   
-19312.499632   -0.006007   -437.518321   
-19125.001572   -0.006105   -437.515037   
-18937.502136   -0.005202   -437.511384   
-18750.002133   -0.004115   -437.508099   
-18562.502021   -0.003255   -437.505325   
-18375.002074   -0.002852   -437.502877   
-18187.502505   -0.003107   -437.500357   
-18000.003534   -0.004283   -437.497150   
-17812.505449   -0.006796   -437.492359   
-17625.008645   -0.011296   -437.484666   
-17437.513660   -0.018755   -437.472137   
-17250.021164   -0.030541   -437.451987   
-17062.531902   -0.048472   -437.420312   
-16875.046485   -0.074736   -437.371910   
-16687.564942   -0.111587   -437.300325   
-16500.085783   -0.160502   -437.198508   
-16312.604261   -0.220396   -437.060719   
-16125.109183   -0.284025   -436.886910   
-15937.577528   -0.331445   -436.691524   
-15749.965217   -0.318188   -436.520242   
-15562.192597   -0.155416   -436.479912   
-15374.120871   0.323544   -436.790397   
-15185.517782   1.416224   -437.871336   
-14996.004530   3.635396   -440.482138   
-14804.987658   7.836146   -445.945367   
-14611.559054   15.407172   -456.481715   
-14414.403798   28.541999   -475.724557   
-14211.679297   50.626754   -509.417882   
-14001.066995   86.727120   -566.450585   
-13779.930425   144.255103   -660.019015   
-13546.310324   233.453473   -809.231649   
-13300.805472   367.902658   -1040.029151   
-13050.654699   562.210533   -1385.733272   
-12817.017912   826.286290   -1883.716377   
-12636.618385   1138.638562   -2568.079240   
-12558.648215   1388.801400   -3464.625754   
-12522.193454   1235.576244   -4604.900239   
-12122.708364   -69.871005   -6099.897668   
-8813.638583   -3217.328236   -5963.113537   
-5874.088571   -5300.612508   -4967.690220   
-18860.339981   -4466.096947   -749.960588   
-19170.648050   -3523.003720   -933.873836   
-19626.439055   -1927.699938   -1065.557432   
-19751.288775   -906.126382   -908.643918   
-19641.304987   -361.822952   -731.386189   
-19441.573710   -108.298885   -621.347653   
-19223.940238   -0.509890   -570.881466   
-19015.413016   37.339764   -556.558174   
-18820.332223   45.010787   -559.238990   
-18637.699304   40.204718   -568.433559   
-18464.058278   31.869136   -578.574368   
-18296.871202   23.465204   -587.500558   
-18133.852728   16.466785   -594.476506   
-17973.579152   11.105407   -599.589293   
-17814.985462   7.251050   -603.145228   
-17657.431467   4.590814   -605.530151   
-17500.482581   2.822336   -607.074129   
-17343.884090   1.682051   -608.044733   
-17187.476094   0.968881   -608.635859   
-17031.168348   0.535891   -608.984841   
-16874.908637   0.281318   -609.183409   
-16718.669393   0.137000   -609.291633   
-16562.436403   0.058753   -609.347259   
-16406.203190   0.018806   -609.373479   
-16249.967234   0.000195   -609.384016   
-16093.727998   -0.007113   -609.386741   
-15937.485798   -0.008864   -609.385958   
-15781.241237   -0.008223   -609.383887   
-15624.994930   -0.006878   -609.381551   
-15468.747390   -0.005719   -609.379299   
-15312.498986   -0.005268   -609.377094   
-15156.249927   -0.005944   -609.374640   
-15000.000236   -0.008261   -609.371410   
-14843.749702   -0.012974   -609.366605   
-14687.497775   -0.021220   -609.359058   
-14531.243396   -0.034646   -609.347097   
-14374.984713   -0.055513   -609.328392   
-14218.718659   -0.086685   -609.299840   
-14062.440343   -0.131385   -609.257580   
-13906.142218   -0.192416   -609.197363   
-13749.813022   -0.270364   -609.115648   
-13593.436585   -0.359881   -609.012126   
-13436.990752   -0.442664   -608.894846   
-13280.447091   -0.474685   -608.789965   
-13123.772597   -0.364114   -608.759202   
-12966.936185   0.065818   -608.930176   
-12809.923951   1.137333   -609.546873   
-12652.772663   3.413432   -611.051629   
-12495.632879   7.845869   -614.213732   
-12338.889087   15.992057   -620.324342   
-12183.370346   30.336250   -631.484341   
-12030.715106   54.715512   -650.999479   
-11884.008813   94.910734   -683.917530   
-11748.769881   159.294819   -737.622785   
-11634.792954   259.567290   -822.503986   
-11558.489119   411.062226   -952.126286   
-11547.996581   631.984798   -1142.908812   
-11647.346901   939.970289   -1411.280176   
-11929.376033   1340.472327   -1769.590174   
-12498.151806   1805.498919   -2218.462477   
-13529.003893   2215.888487   -2748.527532   
-15313.506653   2286.387226   -3358.263745   
-18645.763401   1184.885490   -4073.210162   
-25111.157358   -5285.118558   -5629.271453   
-29368.333490   -10751.235828   -6796.085829   
-14878.206299   -3679.054381   -71.215137   
-15141.314731   -3023.395787   -368.740691   
-15547.014727   -1846.556671   -767.271665   
-15726.517129   -989.125783   -871.380780   
-15724.704621   -460.115942   -849.027768   
-15612.488391   -170.877947   -801.198955   
-15452.576157   -30.608587   -765.003953   
-15279.927254   28.492209   -745.066813   
-15111.047396   46.314530   -737.129117   
-14950.861421   45.726048   -735.791008   
-14800.006044   38.052978   -737.528265   
-14656.883489   28.988947   -740.194252   
-14519.744034   20.805464   -742.825104   
-14386.845517   14.301452   -745.002303   
-14256.880780   9.479232   -746.658306   
-14128.841884   6.088018   -747.839200   
-14002.044527   3.792900   -748.647133   
-13876.015463   2.292564   -749.178555   
-13750.451883   1.341027   -749.517600   
-13625.159275   0.755630   -749.726959   
-13500.019531   0.406439   -749.852403   
-13374.961677   0.205199   -749.924953   
-13249.945151   0.093837   -749.965308   
-13124.947420   0.035350   -749.986622   
-12999.956721   0.006852   -749.997105   
-12874.967321   -0.005395   -750.001669   
-12749.976774   -0.009376   -750.003177   
-12624.984294   -0.009585   -750.003212   
-12499.989855   -0.008471   -750.002596   
-12374.993690   -0.007367   -750.001697   
-12249.996028   -0.007064   -750.000604   
-12124.996937   -0.008187   -749.999228   
-11999.996190   -0.011445   -749.997331   
-11874.993130   -0.017840   -749.994525   
-11749.986462   -0.028829   -749.990249   
-11624.973962   -0.046474   -749.983735   
-11499.952048   -0.073519   -749.973987   
-11374.915234   -0.113301   -749.959825   
-11249.855433   -0.169282   -749.940057   
-11124.761257   -0.243816   -749.913940   
-10999.617511   -0.335438   -749.882170   
-10874.405465   -0.433529   -749.848818   
-10749.104966   -0.508360   -749.824933   
-10623.700363   -0.493486   -749.834882   
-10498.193960   -0.255576   -749.927172   
-10372.632740   0.455432   -750.192192   
-10247.159401   2.086361   -750.790616   
-10122.102119   5.405773   -751.996937   
-9998.132741   11.691597   -754.264459   
-9876.524731   23.007722   -758.316554   
-9759.582091   42.582796   -765.268815   
-9651.299991   75.326870   -776.772548   
-9558.394218   128.422316   -795.155341   
-9491.824056   211.998422   -823.472664   
-9468.906562   339.466414   -865.314272   
-9516.433602   527.308374   -924.032593   
-9673.863611   792.708831   -1000.872627   
-9998.772987   1147.779653   -1091.347772   
-10567.820346   1586.426420   -1179.049034   
-11485.589114   2058.574644   -1227.383911   
-12870.144544   2429.125652   -1167.544830   
-14848.746288   2384.700885   -884.083862   
-17282.008379   1288.013125   -240.630797   
-19199.586239   -1405.094119   280.933234   
-19839.582655   -3182.060884   374.451883   
-11110.986987   -2799.184320   401.734745   
-11280.992600   -2350.970909   45.358922   
-11570.351151   -1530.514944   -503.106124   
-11738.108511   -889.441655   -777.946844   
-11778.600895   -452.863087   -886.553966   
-11726.888426   -190.802251   -913.824613   
-11622.826090   -50.422955   -909.473073   
-11496.744967   14.788030   -896.999432   
-11366.098025   38.724287   -884.996762   
-11239.443791   42.027908   -875.889225   
-11119.495059   36.686131   -869.587436   
-11006.414515   28.730399   -865.496175   
-10899.078332   21.049137   -862.922338   
-10796.182389   14.684255   -861.362909   
-10696.470539   9.858948   -860.439554   
-10598.962194   6.400411   -859.913116   
-10502.910635   4.029731   -859.622253   
-10407.797633   2.460864   -859.470160   
-10313.267650   1.455818   -859.395575   
-10219.090468   0.830995   -859.363335   
-10125.119020   0.454400   -859.352547   
-10031.263452   0.234779   -859.351932   
-9937.469980   0.111518   -859.355336   
-9843.707774   0.045560   -859.359790   
-9749.959758   0.012509   -859.363930   
-9656.217010   -0.002428   -859.367289   
-9562.475187   -0.007953   -859.369796   
-9468.732422   -0.009022   -859.371563   
-9374.988083   -0.008389   -859.372749   
-9281.242071   -0.007575   -859.373513   
-9187.494412   -0.007495   -859.374002   
-9093.745015   -0.008857   -859.374349   
-8999.993488   -0.012435   -859.374699   
-8906.238948   -0.019279   -859.375240   
-8812.479780   -0.030884   -859.376251   
-8718.713321   -0.049318   -859.378178   
-8624.935426   -0.077267   -859.381732   
-8531.139955   -0.117868   -859.388040   
-8437.318224   -0.174113   -859.398847   
-8343.458618   -0.247377   -859.416774   
-8249.546783   -0.334327   -859.445620   
-8155.567199   -0.420937   -859.490662   
-8061.507673   -0.471572   -859.558805   
-7967.369471   -0.409828   -859.658316   
-7873.187637   -0.086211   -859.797567   
-7779.069441   0.774821   -859.981757   
-7685.262613   2.658919   -860.205727   
-7592.273946   6.391018   -860.439608   
-7501.064067   13.328045   -860.601569   
-7413.365615   25.632352   -860.508225   
-7332.171488   46.646792   -859.785909   
-7262.482329   81.357184   -857.716895   
-7212.371398   136.924287   -852.972511   
-7194.455443   223.088554   -843.165925   
-7227.793238   352.233943   -824.103582   
-7339.879197   538.251421   -788.585085   
-7568.832515   793.368157   -724.589556   
-7962.842450   1120.430727   -612.637376   
-8579.392177   1498.465606   -423.051486   
-9468.925873   1857.331899   -113.403726   
-10662.287358   2035.897852   363.810878   
-12092.195955   1732.458527   1022.566258   
-13645.062395   485.697791   1642.145131   
-15199.121198   -1836.027366   1493.447091   
-15954.655258   -3231.230091   1097.736289   
-7367.446821   -1884.122825   712.283702   
-7481.877148   -1604.465234   326.000997   
-7676.201544   -1082.520371   -304.766765   
-7796.297282   -658.376704   -685.356962   
-7839.725852   -354.620858   -886.357066   
-7820.492269   -160.643488   -975.907443   
-7760.751627   -50.463885   -1004.860964   
-7680.300865   4.422258   -1005.007142   
-7592.894378   26.518489   -994.043075   
-7506.046919   31.433287   -980.597283   
-7423.150119   28.463088   -968.434873   
-7344.975608   22.809910   -958.730264   
-7271.164139   16.960944   -951.557028   
-7200.854250   11.973197   -946.511954   
-7133.170507   8.111351   -943.107349   
-7067.337768   5.309248   -940.883161   
-7002.763718   3.366937   -939.475888   
-6939.011444   2.071340   -938.610904   
-6875.781016   1.234697   -938.096061   
-6812.870710   0.710975   -937.799734   
-6750.151196   0.392940   -937.636163   
-6687.541188   0.206012   -937.550447   
-6624.991599   0.100105   -937.508867   
-6562.473541   0.042750   -937.491140   
-6499.970723   0.013508   -937.485575   
-6437.474330   -0.000101   -937.485646   
-6374.979887   -0.005474   -937.487922   
-6312.485306   -0.006863   -937.490722   
-6249.989740   -0.006655   -937.493348   
-6187.492911   -0.006184   -937.495628   
-6124.994720   -0.006259   -937.497689   
-6062.495005   -0.007496   -937.499853   
-5999.993362   -0.010554   -937.502631   
-5937.488973   -0.016304   -937.506775   
-5874.980402   -0.025962   -937.513393   
-5812.465331   -0.041187   -937.524095   
-5749.940221   -0.064088   -937.541189   
-5687.399943   -0.097050   -937.567866   
-5624.837429   -0.142173   -937.608322   
-5562.243575   -0.199950   -937.667639   
-5499.607792   -0.266553   -937.751120   
-5436.920002   -0.328668   -937.862497   
-5374.175536   -0.354135   -937.999988   
-5311.385403   -0.275726   -938.148453   
-5248.596234   0.036072   -938.264780   
-5185.926525   0.817274   -938.251897   
-5123.630401   2.479927   -937.914263   
-5062.204343   5.718325   -936.883989   
-5002.562551   11.664475   -934.502252   
-4946.310812   22.107687   -929.633174   
-4896.167542   39.782492   -920.384192   
-4856.571104   68.720308   -903.691382   
-4834.530601   114.596830   -874.750696   
-4840.707482   184.953818   -826.234938   
-4890.644188   288.936453   -747.399966   
-5005.862594   436.028672   -623.033282   
-5213.911182   632.611947   -432.947276   
-5546.590818   875.031393   -152.115471   
-6031.994398   1136.840087   245.676919   
-6681.734299   1349.794409   779.509044   
-7457.569036   1382.746863   1437.970248   
-8254.391746   1047.605694   2133.315485   
-8851.214623   235.001789   2650.047687   
-9162.758447   -772.560060   2614.397188   
-9264.456538   -1253.158146   2401.469938   
-3679.620222   -945.734176   890.009332   
-3732.764553   -810.796200   488.014873   
-3826.550127   -557.862049   -185.381701   
-3889.102571   -348.030288   -622.023179   
-3915.187576   -193.087744   -876.313163   
-3910.008861   -91.011724   -1005.441362   
-3883.231897   -30.929970   -1057.889259   
-3844.500517   0.041456   -1068.742621   
-3800.971670   13.217321   -1060.231381   
-3757.031741   16.632212   -1045.036931   