<VTKFile type="UnstructuredGrid"  version="0.1"   > 
<UnstructuredGrid> 
<Piece  NumberOfPoints="  81" NumberOfCells=" 64"> 
<Points> 
<DataArray  type="Float64"  NumberOfComponents="3"  format="ascii" > 
24.000000 -3.000000 0.0 
27.000000 -3.000000 0.0 
30.000000 -3.000000 0.0 
33.000000 -3.000000 0.0 
36.000000 -3.000000 0.0 
39.000000 -3.000000 0.0 
42.000000 -3.000000 0.0 
45.000000 -3.000000 0.0 
48.000000 -3.000000 0.0 
24.000000 -2.250000 0.0 
27.000000 -2.250000 0.0 
30.000000 -2.250000 0.0 
33.000000 -2.250000 0.0 
36.000000 -2.250000 0.0 
39.000000 -2.250000 0.0 
42.000000 -2.250000 0.0 
45.000000 -2.250000 0.0 
48.000000 -2.250000 0.0 
24.000000 -1.500000 0.0 
27.000000 -1.500000 0.0 
30.000000 -1.500000 0.0 
33.000000 -1.500000 0.0 
36.000000 -1.500000 0.0 
39.000000 -1.500000 0.0 
42.000000 -1.500000 0.0 
45.000000 -1.500000 0.0 
48.000000 -1.500000 0.0 
24.000000 -0.750000 0.0 
27.000000 -0.750000 0.0 
30.000000 -0.750000 0.0 
33.000000 -0.750000 0.0 
36.000000 -0.750000 0.0 
39.000000 -0.750000 0.0 
42.000000 -0.750000 0.0 
45.000000 -0.750000 0.0 
48.000000 -0.750000 0.0 
24.000000 0.000000 0.0 
27.000000 0.000000 0.0 
30.000000 0.000000 0.0 
33.000000 0.000000 0.0 
36.000000 0.000000 0.0 
39.000000 0.000000 0.0 
42.000000 0.000000 0.0 
45.000000 0.000000 0.0 
48.000000 0.000000 0.0 
24.000000 0.750000 0.0 
27.000000 0.750000 0.0 
30.000000 0.750000 0.0 
33.000000 0.750000 0.0 
36.000000 0.750000 0.0 
39.000000 0.750000 0.0 
42.000000 0.750000 0.0 
45.000000 0.750000 0.0 
48.000000 0.750000 0.0 
24.000000 1.500000 0.0 
27.000000 1.500000 0.0 
30.000000 1.500000 0.0 
33.000000 1.500000 0.0 
36.000000 1.500000 0.0 
39.000000 1.500000 0.0 
42.000000 1.500000 0.0 
45.000000 1.500000 0.0 
48.000000 1.500000 0.0 
24.000000 2.250000 0.0 
27.000000 2.250000 0.0 
30.000000 2.250000 0.0 
33.000000 2.250000 0.0 
36.000000 2.250000 0.0 
39.000000 2.250000 0.0 
42.000000 2.250000 0.0 
45.000000 2.250000 0.0 
48.000000 2.250000 0.0 
24.000000 3.000000 0.0 
27.000000 3.000000 0.0 
30.000000 3.000000 0.0 
33.000000 3.000000 0.0 
36.000000 3.000000 0.0 
39.000000 3.000000 0.0 
42.000000 3.000000 0.0 
45.000000 3.000000 0.0 
48.000000 3.000000 0.0 
</DataArray> 
</Points> 
<Cells> 
<DataArray  type="Int32"  Name="connectivity"  format="ascii"> 
0 1 10 9 
1 2 11 10 
2 3 12 11 
3 4 13 12 
4 5 14 13 
5 6 15 14 
6 7 16 15 
7 8 17 16 
9 10 19 18 
10 11 20 19 
11 12 21 20 
12 13 22 21 
13 14 23 22 
14 15 24 23 
15 16 25 24 
16 17 26 25 
18 19 28 27 
19 20 29 28 
20 21 30 29 
21 22 31 30 
22 23 32 31 
23 24 33 32 
24 25 34 33 
25 26 35 34 
27 28 37 36 
28 29 38 37 
29 30 39 38 
30 31 40 39 
31 32 41 40 
32 33 42 41 
33 34 43 42 
34 35 44 43 
36 37 46 45 
37 38 47 46 
38 39 48 47 
39 40 49 48 
40 41 50 49 
41 42 51 50 
42 43 52 51 
43 44 53 52 
45 46 55 54 
46 47 56 55 
47 48 57 56 
48 49 58 57 
49 50 59 58 
50 51 60 59 
51 52 61 60 
52 53 62 61 
54 55 64 63 
55 56 65 64 
56 57 66 65 
57 58 67 66 
58 59 68 67 
59 60 69 68 
60 61 70 69 
61 62 71 70 
63 64 73 72 
64 65 74 73 
65 66 75 74 
66 67 76 75 
67 68 77 76 
68 69 78 77 
69 70 79 78 
70 71 80 79 
</DataArray> 
<DataArray  type="Int32"  Name="offsets"  format="ascii"> 
4 
8 
12 
16 
20 
24 
28 
32 
36 
40 
44 
48 
52 
56 
60 
64 
68 
72 
76 
80 
84 
88 
92 
96 
100 
104 
108 
112 
116 
120 
124 
128 
132 
136 
140 
144 
148 
152 
156 
160 
164 
168 
172 
176 
180 
184 
188 
192 
196 
200 
204 
208 
212 
216 
220 
224 
228 
232 
236 
240 
244 
248 
252 
256 
</DataArray> 
<DataArray  type="UInt8"  Name="types"  format="ascii"> 
9 
9 
9 
9 
9 
9 
9 
9 
9 
9 
9 
9 
9 
9 
9 
9 
9 
9 
9 
9 
9 
9 
9 
9 
9 
9 
9 
9 
9 
9 
9 
9 
9 
9 
9 
9 
9 
9 
9 
9 
9 
9 
9 
9 
9 
9 
9 
9 
9 
9 
9 
9 
9 
9 
9 
9 
9 
9 
9 
9 
9 
9 
9 
9 
</DataArray> 
</Cells> 
<PointData  Vectors="sigma"> 
<DataArray  type="Float64"  Name="sigma" NumberOfComponents="3" format="ascii"> 
-4043.125338   -164.601665   -51.138908   
-3537.818709   -144.033412   -51.149155   
-3032.388937   -123.400492   -51.170335   
-2527.019650   -102.923396   -51.148674   
-2021.568019   -82.173007   -51.173196   
-1516.264575   -61.948589   -51.152672   
-1010.711986   -40.748271   -51.104650   
-504.970763   -20.565760   -51.897697   
2.771986   -17.303278   -45.293818   
-2811.305983   -10.312302   -105.187321   
-2620.972543   -0.005240   -105.157620   
-2246.536650   -0.027782   -105.148728   
-1872.090306   0.047814   -105.186233   
-1497.714897   -0.083100   -105.124906   
-1123.211802   0.134929   -105.223641   
-748.926074   -0.087666   -105.137657   
-375.643209   -4.649025   -105.828162   
-185.272750   4.772174   -103.813413   
-1875.136336   -10.273162   -183.138906   
-1747.271884   0.008713   -183.180531   
-1497.688312   0.001141   -183.173357   
-1248.067979   0.002186   -183.161615   
-998.464990   -0.012401   -183.172764   
-748.821638   0.033515   -183.167049   
-499.361049   0.018095   -183.187590   
-250.424916   -2.614466   -183.417374   
-122.200166   7.811492   -183.357199   
-939.189490   -10.300385   -229.999171   
-873.674975   -0.013999   -229.952583   
-748.840321   0.005435   -229.971290   
-624.037131   -0.007508   -229.966630   
-499.227129   0.010258   -229.977624   
-374.420281   -0.009257   -229.960984   
-249.691406   0.064185   -229.934804   
-125.253953   -1.323265   -230.283553   
-59.383339   9.706384   -230.744943   
-3.037136   -10.260054   -245.543261   
0.020110   0.004461   -245.583493   
-0.000771   0.001705   -245.573124   
-0.001361   -0.005319   -245.569787   
0.003141   0.010721   -245.571786   
-0.004936   -0.016563   -245.572380   
0.015345   0.051182   -245.479947   
-0.144318   -0.480804   -245.930954   
3.349147   11.164561   -246.477826   
932.925316   -10.295121   -229.995282   
873.630770   -0.002740   -229.961699   
748.846075   0.004666   -229.965201   
624.032321   -0.006801   -229.976701   
499.233506   0.010422   -229.961217   
374.412531   -0.016326   -229.985487   
249.714992   0.014362   -229.866650   
124.927476   0.234517   -230.313358   
66.169827   12.913838   -230.792830   
1869.054391   -10.300037   -183.149332   
1747.316958   0.004178   -183.182125   
1497.686275   0.001738   -183.166594   
1248.069270   0.000346   -183.169689   
998.459262   -0.006107   -183.164419   
748.836588   0.016050   -183.173552   
499.341377   -0.083584   -183.134347   
250.004627   1.214047   -183.279004   
129.230173   15.623531   -183.735551   
2805.051012   -10.302078   -105.180360   
2620.937775   -0.002165   -105.141912   
2246.523884   -0.021923   -105.174514   
1872.115108   0.036192   -105.143020   
1497.671700   -0.061324   -105.199147   
1123.283663   0.104791   -105.102217   
748.818353   -0.271470   -105.321552   
375.090202   2.805514   -104.499049   
192.677283   19.909090   -106.252754   
3537.799654   144.023488   -51.156665   
3537.838214   144.002435   -51.178787   
3032.408120   123.471647   -51.153873   
2526.982527   102.790880   -51.168821   
2021.640210   82.433638   -51.152172   
1516.140938   61.461968   -51.138180   
1010.617216   41.256410   -51.525534   
503.970028   29.025845   -48.199274   
504.970597   20.565348   -51.897806   
</DataArray> 
<DataArray  type="Float64"  Name="U" NumberOfComponents="3" format="ascii"> 
 -0.00479215    -0.02172282    -0.02172282   
 -0.00516657    -0.02674473    -0.02674473   
 -0.00549107    -0.03211610    -0.03211610   
 -0.00576564    -0.03778701    -0.03778701   
 -0.00599029    -0.04370754    -0.04370754   
 -0.00616502    -0.04982775    -0.04982775   
 -0.00628983    -0.05609775    -0.05609775   
 -0.00636471    -0.06246757    -0.06246757   
 -0.00638936    -0.06888661    -0.06888661   
 -0.00358783    -0.02169661    -0.02169661   
 -0.00386865    -0.02672180    -0.02672180   
 -0.00411203    -0.03209645    -0.03209645   
 -0.00431796    -0.03777063    -0.03777063   
 -0.00448645    -0.04369443    -0.04369443   
 -0.00461749    -0.04981793    -0.04981793   
 -0.00471111    -0.05609118    -0.05609118   
 -0.00476725    -0.06246430    -0.06246430   
 -0.00478600    -0.06888706    -0.06888706   
 -0.00238891    -0.02167789    -0.02167789   
 -0.00257612    -0.02670542    -0.02670542   
 -0.00273837    -0.03208241    -0.03208241   
 -0.00287566    -0.03775893    -0.03775893   
 -0.00298798    -0.04368507    -0.04368507   
 -0.00307534    -0.04981091    -0.04981091   
 -0.00313776    -0.05608650    -0.05608650   
 -0.00317520    -0.06246195    -0.06246195   
 -0.00318773    -0.06888732    -0.06888732   
 -0.00119357    -0.02166665    -0.02166665   
 -0.00128717    -0.02669559    -0.02669559   
 -0.00136830    -0.03207398    -0.03207398   
 -0.00143694    -0.03775191    -0.03775191   
 -0.00149311    -0.04367946    -0.04367946   
 -0.00153679    -0.04980669    -0.04980669   
 -0.00156799    -0.05608370    -0.05608370   
 -0.00158672    -0.06246054    -0.06246054   
 -0.00159299    -0.06888744    -0.06888744   
 -0.00000002    -0.02166291    -0.02166291   
 -0.00000002    -0.02669231    -0.02669231   
 -0.00000002    -0.03207117    -0.03207117   
 -0.00000002    -0.03774957    -0.03774957   
 -0.00000002    -0.04367758    -0.04367758   
 -0.00000002    -0.04980529    -0.04980529   
 -0.00000002    -0.05608276    -0.05608276   
 -0.00000002    -0.06246007    -0.06246007   
 -0.00000002    -0.06888748    -0.06888748   
  0.00119352    -0.02166665    -0.02166665   
  0.00128713    -0.02669559    -0.02669559   
  0.00136825    -0.03207398    -0.03207398   
  0.00143690    -0.03775191    -0.03775191   
  0.00149306    -0.04367946    -0.04367946   
  0.00153674    -0.04980669    -0.04980669   
  0.00156795    -0.05608370    -0.05608370   
  0.00158667    -0.06246054    -0.06246054   
  0.00159295    -0.06888744    -0.06888744   
  0.00238886    -0.02167789    -0.02167789   
  0.00257607    -0.02670542    -0.02670542   
  0.00273832    -0.03208240    -0.03208240   
  0.00287561    -0.03775893    -0.03775893   
  0.00298794    -0.04368507    -0.04368507   
  0.00307530    -0.04981091    -0.04981091   
  0.00313771    -0.05608650    -0.05608650   
  0.00317515    -0.06246195    -0.06246195   
  0.00318769    -0.06888732    -0.06888732   
  0.00358779    -0.02169661    -0.02169661   
  0.00386861    -0.02672180    -0.02672180   
  0.00411198    -0.03209645    -0.03209645   
  0.00431791    -0.03777063    -0.03777063   
  0.00448640    -0.04369443    -0.04369443   
  0.00461744    -0.04981793    -0.04981793   
  0.00471106    -0.05609118    -0.05609118   
  0.00476721    -0.06246430    -0.06246430   
  0.00478596    -0.06888706    -0.06888706   
  0.00479210    -0.02172282    -0.02172282   
  0.00516652    -0.02674473    -0.02674473   
  0.00549102    -0.03211610    -0.03211610   
  0.00576560    -0.03778701    -0.03778701   
  0.00599025    -0.04370754    -0.04370754   
  0.00616498    -0.04982775    -0.04982775   
  0.00628979    -0.05609775    -0.05609775   
  0.00636466    -0.06246757    -0.06246757   
  0.00638931    -0.06888661    -0.06888661   
</DataArray> 
</PointData> 
</Piece> 
</UnstructuredGrid> 
</VTKFile> 
