<VTKFile type="UnstructuredGrid"  version="0.1"   > 
<UnstructuredGrid> 
<Piece  NumberOfPoints="  289" NumberOfCells=" 256"> 
<Points> 
<DataArray  type="Float64"  NumberOfComponents="3"  format="ascii" > 
1.792893 5.707107 0.0 
1.732217 5.640710 0.0 
1.676031 5.566635 0.0 
1.625622 5.485245 0.0 
1.582258 5.397177 0.0 
1.547118 5.303341 0.0 
1.521219 5.204909 0.0 
1.505347 5.103277 0.0 
1.500000 5.000000 0.0 
1.505347 4.896723 0.0 
1.521219 4.795091 0.0 
1.547118 4.696659 0.0 
1.582258 4.602823 0.0 
1.625622 4.514755 0.0 
1.676031 4.433365 0.0 
1.732217 4.359290 0.0 
1.792893 4.292893 0.0 
1.859290 5.767783 0.0 
1.809396 5.690604 0.0 
1.763841 5.606654 0.0 
1.723488 5.516402 0.0 
1.689160 5.420510 0.0 
1.661599 5.319832 0.0 
1.641432 5.215392 0.0 
1.629133 5.108358 0.0 
1.625000 5.000000 0.0 
1.629133 4.891642 0.0 
1.641432 4.784608 0.0 
1.661599 4.680168 0.0 
1.689160 4.579490 0.0 
1.723488 4.483598 0.0 
1.763841 4.393346 0.0 
1.809396 4.309396 0.0 
1.859290 4.232217 0.0 
1.933365 5.823969 0.0 
1.893346 5.736159 0.0 
1.857274 5.642726 0.0 
1.825687 5.544167 0.0 
1.799081 5.441102 0.0 
1.777896 5.334272 0.0 
1.762491 5.224518 0.0 
1.753137 5.112766 0.0 
1.750000 5.000000 0.0 
1.753137 4.887234 0.0 
1.762491 4.775482 0.0 
1.777896 4.665728 0.0 
1.799081 4.558898 0.0 
1.825687 4.455833 0.0 
1.857274 4.357274 0.0 
1.893346 4.263841 0.0 
1.933365 4.176031 0.0 
2.014755 5.874378 0.0 
1.983598 5.776512 0.0 
1.955833 5.674313 0.0 
1.931764 5.568236 0.0 
1.911666 5.458802 0.0 
1.895774 5.346601 0.0 
1.884281 5.232272 0.0 
1.877328 5.116500 0.0 
1.875000 5.000000 0.0 
1.877328 4.883500 0.0 
1.884281 4.767728 0.0 
1.895774 4.653399 0.0 
1.911666 4.541198 0.0 
1.931764 4.431764 0.0 
1.955833 4.325687 0.0 
1.983598 4.223488 0.0 
2.014755 4.125622 0.0 
2.102823 5.917742 0.0 
2.079490 5.810840 0.0 
2.058898 5.700919 0.0 
2.041198 5.588334 0.0 
2.026524 5.473476 0.0 
2.014989 5.356763 0.0 
2.006684 5.238637 0.0 
2.001674 5.119558 0.0 
2.000000 5.000000 0.0 
2.001674 4.880442 0.0 
2.006684 4.761363 0.0 
2.014989 4.643237 0.0 
2.026524 4.526524 0.0 
2.041198 4.411666 0.0 
2.058898 4.299081 0.0 
2.079490 4.189160 0.0 
2.102823 4.082258 0.0 
2.196659 5.952882 0.0 
2.180168 5.838401 0.0 
2.165728 5.722104 0.0 
2.153399 5.604226 0.0 
2.143237 5.485011 0.0 
2.135285 5.364715 0.0 
2.129580 5.243601 0.0 
2.126146 5.121938 0.0 
2.125000 5.000000 0.0 
2.126146 4.878062 0.0 
2.129580 4.756399 0.0 
2.135285 4.635285 0.0 
2.143237 4.514989 0.0 
2.153399 4.395774 0.0 
2.165728 4.277896 0.0 
2.180168 4.161599 0.0 
2.196659 4.047118 0.0 
2.295091 5.978781 0.0 
2.284608 5.858568 0.0 
2.275482 5.737509 0.0 
2.267728 5.615719 0.0 
2.261363 5.493316 0.0 
2.256399 5.370420 0.0 
2.252846 5.247154 0.0 
2.250712 5.123639 0.0 
2.250000 5.000000 0.0 
2.250712 4.876361 0.0 
2.252846 4.752846 0.0 
2.256399 4.629580 0.0 
2.261363 4.506684 0.0 
2.267728 4.384281 0.0 
2.275482 4.262491 0.0 
2.284608 4.141432 0.0 
2.295091 4.021219 0.0 
2.396723 5.994653 0.0 
2.391642 5.870867 0.0 
2.387234 5.746863 0.0 
2.383500 5.622672 0.0 
2.380442 5.498326 0.0 
2.378062 5.373854 0.0 
2.376361 5.249288 0.0 
2.375340 5.124660 0.0 
2.375000 5.000000 0.0 
2.375340 4.875340 0.0 
2.376361 4.750712 0.0 
2.378062 4.626146 0.0 
2.380442 4.501674 0.0 
2.383500 4.377328 0.0 
2.387234 4.253137 0.0 
2.391642 4.129133 0.0 
2.396723 4.005347 0.0 
2.500000 6.000000 0.0 
2.500000 5.875000 0.0 
2.500000 5.750000 0.0 
2.500000 5.625000 0.0 
2.500000 5.500000 0.0 
2.500000 5.375000 0.0 
2.500000 5.250000 0.0 
2.500000 5.125000 0.0 
2.500000 5.000000 0.0 
2.500000 4.875000 0.0 
2.500000 4.750000 0.0 
2.500000 4.625000 0.0 
2.500000 4.500000 0.0 
2.500000 4.375000 0.0 
2.500000 4.250000 0.0 
2.500000 4.125000 0.0 
2.500000 4.000000 0.0 
2.603277 5.994653 0.0 
2.608358 5.870867 0.0 
2.612766 5.746863 0.0 
2.616500 5.622672 0.0 
2.619558 5.498326 0.0 
2.621938 5.373854 0.0 
2.623639 5.249288 0.0 
2.624660 5.124660 0.0 
2.625000 5.000000 0.0 
2.624660 4.875340 0.0 
2.623639 4.750712 0.0 
2.621938 4.626146 0.0 
2.619558 4.501674 0.0 
2.616500 4.377328 0.0 
2.612766 4.253137 0.0 
2.608358 4.129133 0.0 
2.603277 4.005347 0.0 
2.704909 5.978781 0.0 
2.715392 5.858568 0.0 
2.724518 5.737509 0.0 
2.732272 5.615719 0.0 
2.738637 5.493316 0.0 
2.743601 5.370420 0.0 
2.747154 5.247154 0.0 
2.749288 5.123639 0.0 
2.750000 5.000000 0.0 
2.749288 4.876361 0.0 
2.747154 4.752846 0.0 
2.743601 4.629580 0.0 
2.738637 4.506684 0.0 
2.732272 4.384281 0.0 
2.724518 4.262491 0.0 
2.715392 4.141432 0.0 
2.704909 4.021219 0.0 
2.803341 5.952882 0.0 
2.819832 5.838401 0.0 
2.834272 5.722104 0.0 
2.846601 5.604226 0.0 
2.856763 5.485011 0.0 
2.864715 5.364715 0.0 
2.870420 5.243601 0.0 
2.873854 5.121938 0.0 
2.875000 5.000000 0.0 
2.873854 4.878062 0.0 
2.870420 4.756399 0.0 
2.864715 4.635285 0.0 
2.856763 4.514989 0.0 
2.846601 4.395774 0.0 
2.834272 4.277896 0.0 
2.819832 4.161599 0.0 
2.803341 4.047118 0.0 
2.897177 5.917742 0.0 
2.920510 5.810840 0.0 
2.941102 5.700919 0.0 
2.958802 5.588334 0.0 
2.973476 5.473476 0.0 
2.985011 5.356763 0.0 
2.993316 5.238637 0.0 
2.998326 5.119558 0.0 
3.000000 5.000000 0.0 
2.998326 4.880442 0.0 
2.993316 4.761363 0.0 
2.985011 4.643237 0.0 
2.973476 4.526524 0.0 
2.958802 4.411666 0.0 
2.941102 4.299081 0.0 
2.920510 4.189160 0.0 
2.897177 4.082258 0.0 
2.985245 5.874378 0.0 
3.016402 5.776512 0.0 
3.044167 5.674313 0.0 
3.068236 5.568236 0.0 
3.088334 5.458802 0.0 
3.104226 5.346601 0.0 
3.115719 5.232272 0.0 
3.122672 5.116500 0.0 
3.125000 5.000000 0.0 
3.122672 4.883500 0.0 
3.115719 4.767728 0.0 
3.104226 4.653399 0.0 
3.088334 4.541198 0.0 
3.068236 4.431764 0.0 
3.044167 4.325687 0.0 
3.016402 4.223488 0.0 
2.985245 4.125622 0.0 
3.066635 5.823969 0.0 
3.106654 5.736159 0.0 
3.142726 5.642726 0.0 
3.174313 5.544167 0.0 
3.200919 5.441102 0.0 
3.222104 5.334272 0.0 
3.237509 5.224518 0.0 
3.246863 5.112766 0.0 
3.250000 5.000000 0.0 
3.246863 4.887234 0.0 
3.237509 4.775482 0.0 
3.222104 4.665728 0.0 
3.200919 4.558898 0.0 
3.174313 4.455833 0.0 
3.142726 4.357274 0.0 
3.106654 4.263841 0.0 
3.066635 4.176031 0.0 
3.140710 5.767783 0.0 
3.190604 5.690604 0.0 
3.236159 5.606654 0.0 
3.276512 5.516402 0.0 
3.310840 5.420510 0.0 
3.338401 5.319832 0.0 
3.358568 5.215392 0.0 
3.370867 5.108358 0.0 
3.375000 5.000000 0.0 
3.370867 4.891642 0.0 
3.358568 4.784608 0.0 
3.338401 4.680168 0.0 
3.310840 4.579490 0.0 
3.276512 4.483598 0.0 
3.236159 4.393346 0.0 
3.190604 4.309396 0.0 
3.140710 4.232217 0.0 
3.207107 5.707107 0.0 
3.267783 5.640710 0.0 
3.323969 5.566635 0.0 
3.374378 5.485245 0.0 
3.417742 5.397177 0.0 
3.452882 5.303341 0.0 
3.478781 5.204909 0.0 
3.494653 5.103277 0.0 
3.500000 5.000000 0.0 
3.494653 4.896723 0.0 
3.478781 4.795091 0.0 
3.452882 4.696659 0.0 
3.417742 4.602823 0.0 
3.374378 4.514755 0.0 
3.323969 4.433365 0.0 
3.267783 4.359290 0.0 
3.207107 4.292893 0.0 
</DataArray> 
</Points> 
<Cells> 
<DataArray  type="Int32"  Name="connectivity"  format="ascii"> 
0 1 18 17 
1 2 19 18 
2 3 20 19 
3 4 21 20 
4 5 22 21 
5 6 23 22 
6 7 24 23 
7 8 25 24 
8 9 26 25 
9 10 27 26 
10 11 28 27 
11 12 29 28 
12 13 30 29 
13 14 31 30 
14 15 32 31 
15 16 33 32 
17 18 35 34 
18 19 36 35 
19 20 37 36 
20 21 38 37 
21 22 39 38 
22 23 40 39 
23 24 41 40 
24 25 42 41 
25 26 43 42 
26 27 44 43 
27 28 45 44 
28 29 46 45 
29 30 47 46 
30 31 48 47 
31 32 49 48 
32 33 50 49 
34 35 52 51 
35 36 53 52 
36 37 54 53 
37 38 55 54 
38 39 56 55 
39 40 57 56 
40 41 58 57 
41 42 59 58 
42 43 60 59 
43 44 61 60 
44 45 62 61 
45 46 63 62 
46 47 64 63 
47 48 65 64 
48 49 66 65 
49 50 67 66 
51 52 69 68 
52 53 70 69 
53 54 71 70 
54 55 72 71 
55 56 73 72 
56 57 74 73 
57 58 75 74 
58 59 76 75 
59 60 77 76 
60 61 78 77 
61 62 79 78 
62 63 80 79 
63 64 81 80 
64 65 82 81 
65 66 83 82 
66 67 84 83 
68 69 86 85 
69 70 87 86 
70 71 88 87 
71 72 89 88 
72 73 90 89 
73 74 91 90 
74 75 92 91 
75 76 93 92 
76 77 94 93 
77 78 95 94 
78 79 96 95 
79 80 97 96 
80 81 98 97 
81 82 99 98 
82 83 100 99 
83 84 101 100 
85 86 103 102 
86 87 104 103 
87 88 105 104 
88 89 106 105 
89 90 107 106 
90 91 108 107 
91 92 109 108 
92 93 110 109 
93 94 111 110 
94 95 112 111 
95 96 113 112 
96 97 114 113 
97 98 115 114 
98 99 116 115 
99 100 117 116 
100 101 118 117 
102 103 120 119 
103 104 121 120 
104 105 122 121 
105 106 123 122 
106 107 124 123 
107 108 125 124 
108 109 126 125 
109 110 127 126 
110 111 128 127 
111 112 129 128 
112 113 130 129 
113 114 131 130 
114 115 132 131 
115 116 133 132 
116 117 134 133 
117 118 135 134 
119 120 137 136 
120 121 138 137 
121 122 139 138 
122 123 140 139 
123 124 141 140 
124 125 142 141 
125 126 143 142 
126 127 144 143 
127 128 145 144 
128 129 146 145 
129 130 147 146 
130 131 148 147 
131 132 149 148 
132 133 150 149 
133 134 151 150 
134 135 152 151 
136 137 154 153 
137 138 155 154 
138 139 156 155 
139 140 157 156 
140 141 158 157 
141 142 159 158 
142 143 160 159 
143 144 161 160 
144 145 162 161 
145 146 163 162 
146 147 164 163 
147 148 165 164 
148 149 166 165 
149 150 167 166 
150 151 168 167 
151 152 169 168 
153 154 171 170 
154 155 172 171 
155 156 173 172 
156 157 174 173 
157 158 175 174 
158 159 176 175 
159 160 177 176 
160 161 178 177 
161 162 179 178 
162 163 180 179 
163 164 181 180 
164 165 182 181 
165 166 183 182 
166 167 184 183 
167 168 185 184 
168 169 186 185 
170 171 188 187 
171 172 189 188 
172 173 190 189 
173 174 191 190 
174 175 192 191 
175 176 193 192 
176 177 194 193 
177 178 195 194 
178 179 196 195 
179 180 197 196 
180 181 198 197 
181 182 199 198 
182 183 200 199 
183 184 201 200 
184 185 202 201 
185 186 203 202 
187 188 205 204 
188 189 206 205 
189 190 207 206 
190 191 208 207 
191 192 209 208 
192 193 210 209 
193 194 211 210 
194 195 212 211 
195 196 213 212 
196 197 214 213 
197 198 215 214 
198 199 216 215 
199 200 217 216 
200 201 218 217 
201 202 219 218 
202 203 220 219 
204 205 222 221 
205 206 223 222 
206 207 224 223 
207 208 225 224 
208 209 226 225 
209 210 227 226 
210 211 228 227 
211 212 229 228 
212 213 230 229 
213 214 231 230 
214 215 232 231 
215 216 233 232 
216 217 234 233 
217 218 235 234 
218 219 236 235 
219 220 237 236 
221 222 239 238 
222 223 240 239 
223 224 241 240 
224 225 242 241 
225 226 243 242 
226 227 244 243 
227 228 245 244 
228 229 246 245 
229 230 247 246 
230 231 248 247 
231 232 249 248 
232 233 250 249 
233 234 251 250 
234 235 252 251 
235 236 253 252 
236 237 254 253 
238 239 256 255 
239 240 257 256 
240 241 258 257 
241 242 259 258 
242 243 260 259 
243 244 261 260 
244 245 262 261 
245 246 263 262 
246 247 264 263 
247 248 265 264 
248 249 266 265 
249 250 267 266 
250 251 268 267 
251 252 269 268 
252 253 270 269 
253 254 271 270 
255 256 273 272 
256 257 274 273 
257 258 275 274 
258 259 276 275 
259 260 277 276 
260 261 278 277 
261 262 279 278 
262 263 280 279 
263 264 281 280 
264 265 282 281 
265 266 283 282 
266 267 284 283 
267 268 285 284 
268 269 286 285 
269 270 287 286 
270 271 288 287 
</DataArray> 
<DataArray  type="Int32"  Name="offsets"  format="ascii"> 
4 
8 
12 
16 
20 
24 
28 
32 
36 
40 
44 
48 
52 
56 
60 
64 
68 
72 
76 
80 
84 
88 
92 
96 
100 
104 
108 
112 
116 
120 
124 
128 
132 
136 
140 
144 
148 
152 
156 
160 
164 
168 
172 
176 
180 
184 
188 
192 
196 
200 
204 
208 
212 
216 
220 
224 
228 
232 
236 
240 
244 
248 
252 
256 
260 
264 
268 
272 
276 
280 
284 
288 
292 
296 
300 
304 
308 
312 
316 
320 
324 
328 
332 
336 
340 
344 
348 
352 
356 
360 
364 
368 
372 
376 
380 
384 
388 
392 
396 
400 
404 
408 
412 
416 
420 
424 
428 
432 
436 
440 
444 
448 
452 
456 
460 
464 
468 
472 
476 
480 
484 
488 
492 
496 
500 
504 
508 
512 
516 
520 
524 
528 
532 
536 
540 
544 
548 
552 
556 
560 
564 
568 
572 
576 
580 
584 
588 
592 
596 
600 
604 
608 
612 
616 
620 
624 
628 
632 
636 
640 
644 
648 
652 
656 
660 
664 
668 
672 
676 
680 
684 
688 
692 
696 
700 
704 
708 
712 
716 
720 
724 
728 
732 
736 
740 
744 
748 
752 
756 
760 
764 
768 
772 
776 
780 
784 
788 
792 
796 
800 
804 
808 
812 
816 
820 
824 
828 
832 
836 
840 
844 
848 
852 
856 
860 
864 
868 
872 
876 
880 
884 
888 
892 
896 
900 
904 
908 
912 
916 
920 
924 
928 
932 
936 
940 
944 
948 
952 
956 
960 
964 
968 
972 
976 
980 
984 
988 
992 
996 
1000 
1004 
1008 
1012 
1016 
1020 
1024 
</DataArray> 
<DataArray  type="UInt8"  Name="types"  format="ascii"> 
9 
9 
9 
9 
9 
9 
9 
9 
9 
9 
9 
9 
9 
9 
9 
9 
9 
9 
9 
9 
9 
9 
9 
9 
9 
9 
9 
9 
9 
9 
9 
9 
9 
9 
9 
9 
9 
9 
9 
9 
9 
9 
9 
9 
9 
9 
9 
9 
9 
9 
9 
9 
9 
9 
9 
9 
9 
9 
9 
9 
9 
9 
9 
9 
9 
9 
9 
9 
9 
9 
9 
9 
9 
9 
9 
9 
9 
9 
9 
9 
9 
9 
9 
9 
9 
9 
9 
9 
9 
9 
9 
9 
9 
9 
9 
9 
9 
9 
9 
9 
9 
9 
9 
9 
9 
9 
9 
9 
9 
9 
9 
9 
9 
9 
9 
9 
9 
9 
9 
9 
9 
9 
9 
9 
9 
9 
9 
9 
9 
9 
9 
9 
9 
9 
9 
9 
9 
9 
9 
9 
9 
9 
9 
9 
9 
9 
9 
9 
9 
9 
9 
9 
9 
9 
9 
9 
9 
9 
9 
9 
9 
9 
9 
9 
9 
9 
9 
9 
9 
9 
9 
9 
9 
9 
9 
9 
9 
9 
9 
9 
9 
9 
9 
9 
9 
9 
9 
9 
9 
9 
9 
9 
9 
9 
9 
9 
9 
9 
9 
9 
9 
9 
9 
9 
9 
9 
9 
9 
9 
9 
9 
9 
9 
9 
9 
9 
9 
9 
9 
9 
9 
9 
9 
9 
9 
9 
9 
9 
9 
9 
9 
9 
9 
9 
9 
9 
9 
9 
9 
9 
9 
9 
9 
9 
9 
9 
9 
9 
9 
9 
9 
9 
9 
9 
9 
9 
</DataArray> 
</Cells> 
<PointData  Vectors="sigma"> 
<DataArray  type="Float64"  Name="sigma" NumberOfComponents="3" format="ascii"> 
-8.755143   22.794280   2.460464   
-3.888981   28.094184   1.262081   
-2.985444   21.107155   -0.759874   
-7.416852   23.291434   -3.312313   
-4.465607   40.272053   2.588808   
-4.412976   21.291974   5.089838   
-5.554197   16.549902   1.373477   
-5.314136   19.973419   1.181924   
-4.797411   18.551575   -0.036995   
-5.324157   19.965991   -1.261763   
-5.566524   16.548027   -1.448594   
-4.422322   21.300776   -5.173202   
-4.495957   40.332445   -2.670870   
-7.456371   23.295776   3.265649   
-3.007480   21.114347   0.698263   
-3.931355   28.196369   -1.301933   
-3.312668   31.370137   1.868356   
-2.808861   28.040727   -1.356057   
-3.255891   27.648389   -0.792889   
-3.852887   26.599160   -0.175585   
-4.219223   26.002878   -0.141466   
-4.584876   26.436826   -0.060683   
-5.152553   26.177263   0.245459   
-5.884559   24.516625   0.599534   
-6.139179   23.060476   0.549037   
-6.082326   22.633214   -0.037480   
-6.146500   23.065344   -0.622781   
-5.896653   24.527363   -0.670973   
-5.169574   26.194007   -0.314797   
-4.607537   26.456952   -0.004689   
-4.245196   26.025445   0.081987   
-3.882052   26.618707   0.120143   
-3.232097   27.702056   0.762138   
-2.729787   28.133298   1.348897   
-0.441365   27.082477   -0.849978   
-1.581040   27.273088   -0.855261   
-3.277129   27.361928   -0.642147   
-4.136977   27.043132   -0.237878   
-4.564846   26.628776   -0.035411   
-4.947849   26.318681   -0.130004   
-5.612102   26.034081   -0.194378   
-6.223205   25.619016   -0.078127   
-6.430191   25.377534   -0.033917   
-6.229007   25.625697   0.011062   
-5.622883   26.046607   0.128701   
-4.963522   26.336658   0.065755   
-4.584711   26.652120   -0.026120   
-4.158897   27.069356   0.180015   
-3.293610   27.390314   0.587691   
-1.617542   27.288839   0.791580   
-0.503768   27.083741   0.775424   
-1.711424   27.446645   -0.160382   
-1.883155   27.444466   -0.395595   
-2.620683   27.524291   -0.600741   
-3.632953   27.548911   -0.459708   
-4.421259   27.380518   -0.290329   
-5.050483   27.175213   -0.238903   
-5.603121   27.037203   -0.242054   
-6.053514   26.966904   -0.176854   
-6.240070   26.942352   -0.029954   
-6.059051   26.974864   0.117217   
-5.613945   27.052886   0.183037   
-5.066000   27.198504   0.180716   
-4.440630   27.411068   0.232863   
-3.653964   27.586354   0.401353   
-2.647060   27.568379   0.534407   
-1.912154   27.506408   0.315467   
-1.737586   27.523210   0.073311   
-2.731784   27.537472   -0.756072   
-2.409161   27.620055   -0.557042   
-2.483716   27.790425   -0.390579   
-3.354536   27.920257   -0.384417   
-4.215980   27.944630   -0.313657   
-4.930201   27.908690   -0.271494   
-5.519908   27.888915   -0.236369   
-5.931906   27.894042   -0.153948   
-6.082043   27.903132   -0.025259   
-5.937584   27.903891   0.103569   
-5.531045   27.908694   0.186360   
-4.946648   27.938776   0.221919   
-4.237454   27.986197   0.264577   
-3.382715   27.976272   0.334905   
-2.519320   27.872685   0.344410   
-2.420098   27.756506   0.524366   
-2.714977   27.710147   0.732819   
0.471338   28.227257   -0.901990   
-0.655373   28.248712   -0.576047   
-2.251505   28.282260   -0.235568   
-3.198412   28.352115   -0.231693   
-4.096586   28.435209   -0.234173   
-4.853957   28.480011   -0.215475   
-5.436901   28.521353   -0.182217   
-5.819053   28.559919   -0.116220   
-5.956402   28.579507   -0.019686   
-5.824804   28.571537   0.077019   
-5.448242   28.544799   0.143566   
-4.870510   28.516021   0.178126   
-4.117934   28.485104   0.199499   
-3.223399   28.419759   0.204095   
-2.270548   28.371232   0.224990   
-0.679740   28.348416   0.592045   
0.434399   28.326795   0.932873   
1.109771   28.815407   -0.167515   
-0.090844   28.809161   -0.225924   
-1.948284   28.781141   -0.212849   
-3.103302   28.783732   -0.141746   
-4.028863   28.843728   -0.142981   
-4.796584   28.911205   -0.138784   
-5.377615   28.971232   -0.117876   
-5.744541   29.018499   -0.074304   
-5.872205   29.040786   -0.013426   
-5.750118   29.031317   0.047666   
-5.388312   28.996980   0.092045   
-4.811353   28.950007   0.114816   
-4.045733   28.895833   0.122957   
-3.117175   28.848210   0.129418   
-1.954030   28.851555   0.209208   
-0.088103   28.874308   0.226269   
1.116274   28.874957   0.168183   
0.313288   28.684601   -0.461264   
-0.337294   28.791266   -0.371169   
-1.709390   28.959584   -0.204016   
-2.986163   29.049017   -0.100829   
-3.983052   29.112007   -0.072268   
-4.766062   29.180745   -0.067288   
-5.343398   29.243709   -0.057056   
-5.701547   29.291607   -0.035988   
-5.825098   29.313429   -0.006788   
-5.706803   29.305019   0.022580   
-5.353157   29.270360   0.044243   
-4.778667   29.220101   0.055805   
-3.995471   29.162793   0.063393   
-2.994233   29.107994   0.095570   
-1.710144   29.022295   0.202921   
-0.324355   28.856288   0.379320   
0.335881   28.751122   0.476406   
0.907149   28.391186   -0.000392   
0.024669   28.612254   -0.000521   
-1.594622   28.951423   -0.000798   
-2.919789   29.119066   -0.001047   
-3.960235   29.203566   -0.001148   
-4.754810   29.272543   -0.001046   
-5.332159   29.335294   -0.000772   
-5.687695   29.382392   -0.000403   
-5.809694   29.404166   -0.000005   
-5.692793   29.395962   0.000395   
-5.341499   29.362131   0.000767   
-4.766479   29.311850   0.001045   
-3.971142   29.253428   0.001149   
-2.926252   29.176361   0.001047   
-1.591152   29.012504   0.000796   
0.044430   28.668367   0.000517   
0.936418   28.441379   0.000387   
0.312923   28.684798   0.460511   
-0.337736   28.791509   0.370145   
-1.709889   28.959888   0.202410   
-2.986505   29.049296   0.098688   
-3.983053   29.112162   0.069906   
-4.765678   29.180788   0.065165   
-5.342741   29.243756   0.055532   
-5.700777   29.291724   0.035207   
-5.824303   29.313580   0.006776   
-5.706027   29.305132   -0.021818   
-5.352492   29.270399   -0.042729   
-4.778276   29.220136   -0.053683   
-3.995471   29.162945   -0.061026   
-2.994579   29.108275   -0.093427   
-1.710647   29.022601   -0.201321   
-0.324798   28.856528   -0.378307   
0.335520   28.751314   -0.475665   
1.109035   28.815728   0.166776   
-0.091743   28.809568   0.224931   
-1.949339   28.781715   0.211227   
-3.104041   28.784260   0.139443   
-4.028802   28.843963   0.140416   
-4.795688   28.911246   0.136605   
-5.376251   28.971358   0.116452   
-5.743030   29.018871   0.073642   
-5.870668   29.041290   0.013411   
-5.748594   29.031680   -0.047030   
-5.386928   28.997092   -0.090635   
-4.810441   28.950032   -0.112637   
-4.045668   28.896057   -0.120381   
-3.117925   28.848740   -0.127106   
-1.955099   28.852140   -0.207592   
-0.089010   28.874716   -0.225296   
1.115533   28.875268   -0.167468   
0.470168   28.227270   0.901346   
-0.656844   28.249095   0.575196   
-2.253278   28.283098   0.233937   
-3.199591   28.352808   0.229051   
-4.096343   28.435340   0.231249   
-4.852319   28.479888   0.213309   
-5.434620   28.521717   0.181174   
-5.816879   28.560938   0.115903   
-5.954402   28.580769   0.019666   
-5.822608   28.572545   -0.076737   
-5.445925   28.545141   -0.142543   
-4.868838   28.515870   -0.175959   
-4.117678   28.485214   -0.196555   
-3.224593   28.420449   -0.201429   
-2.272357   28.372087   -0.223351   
-0.681238   28.348833   -0.591223   
0.433216   28.326850   -0.932279   
-2.733460   27.538040   0.756176   
-2.411365   27.620786   0.556754   
-2.486630   27.791569   0.388929   
-3.356459   27.920878   0.380987   
-4.214926   27.944058   0.310155   
-4.926905   27.908424   0.269940   
-5.516756   27.890123   0.236379   
-5.929579   27.896335   0.154192   
-6.079950   27.905759   0.025232   
-5.935225   27.906172   -0.103861   
-5.527837   27.909879   -0.186403   
-4.943287   27.938474   -0.220371   
-4.236364   27.985582   -0.261043   
-3.384654   27.976872   -0.331427   
-2.522286   27.873833   -0.342729   
-2.422351   27.757263   -0.524072   
-2.716687   27.710760   -0.732927   
-1.714517   27.445789   0.160085   
-1.887080   27.444984   0.395249   
-2.625699   27.525036   0.598077   
-3.635039   27.547511   0.454672   
-4.417971   27.379068   0.287247   
-5.045273   27.176105   0.239141   
-5.599080   27.040426   0.243642   
-6.051439   26.971277   0.178030   
-6.239043   26.946936   0.029922   
-6.056933   26.979230   -0.118452   
-5.609830   27.056096   -0.184668   
-5.060697   27.199381   -0.180976   
-4.437252   27.409581   -0.229772   
-3.656041   27.584882   -0.396251   
-2.652150   27.569092   -0.531681   
-1.916190   27.506883   -0.315092   
-1.740815   27.522246   -0.072979   
-0.440014   27.085927   0.852797   
-1.585397   27.271650   0.855320   
-3.285291   27.356467   0.638166   
-4.137105   27.041311   0.233361   
-4.556008   26.630608   0.034682   
-4.938893   26.324171   0.134435   
-5.609733   26.042669   0.198085   
-6.223878   25.625160   0.077759   
-6.430027   25.380918   0.033887   
-6.229631   25.631852   -0.010757   
-5.620415   26.055199   -0.132458   
-4.954455   26.342161   -0.070196   
-4.575760   26.654002   0.026839   
-4.158928   27.067537   -0.175501   
-3.301866   27.384718   -0.583628   
-1.621863   27.287452   -0.791696   
-0.502084   27.087499   -0.778495   
-2.790794   28.021091   1.364683   
-3.257822   27.632115   0.797724   
-3.863657   26.597867   0.176740   
-4.213388   26.014749   0.140952   
-4.572510   26.455273   0.063500   
-5.147708   26.195483   -0.242236   
-5.888123   24.519417   -0.603661   
-6.138301   23.060529   -0.551753   
-6.077193   22.640697   0.037457   
-6.145573   23.065415   0.625451   
-5.900083   24.530191   0.675049   
-5.164560   26.212255   0.311593   
-4.595077   26.475500   0.001951   
-4.239250   26.037528   -0.081486   
-3.892751   26.617552   -0.121329   
-3.234739   27.685151   -0.766672   
-2.713102   28.112367   -1.356952   
-3.905121   28.019503   -1.261407   
-6.215075   22.063754   -0.908784   
-5.692068   25.617423   1.011594   
-3.656840   30.895903   -0.911886   
-5.962319   22.138119   -0.912139   
-4.954661   28.549389   -1.992514   
-4.872055   20.540896   -3.129340   
-5.186105   17.553265   -0.663922   
-5.303465   20.017323   0.039909   
-5.192306   17.552277   0.738454   
-4.881415   20.541541   3.210811   
-4.975848   28.578949   2.071377   
-5.986719   22.144331   0.977117   
-3.682558   30.930502   0.983870   
-5.733038   25.670571   -0.968199   
-2.320477   26.136289   -1.487909   
-3.947024   28.121814   1.301367   
</DataArray> 
<DataArray  type="Float64"  Name="U" NumberOfComponents="3" format="ascii"> 
  0.00790080     0.07684048     0.07684048   
  0.00880528     0.07487651     0.07487651   
  0.00990730     0.07258497     0.07258497   
  0.01117953     0.07047317     0.07047317   
  0.01211624     0.06741666     0.06741666   
  0.01275129     0.06404671     0.06404671   
  0.01351682     0.06167338     0.06167338   
  0.01396635     0.05953728     0.05953728   
  0.01402168     0.05737579     0.05737579   
  0.01397424     0.05521385     0.05521385   
  0.01353122     0.05307569     0.05307569   
  0.01277089     0.05069778     0.05069778   
  0.01214204     0.04731938     0.04731938   
  0.01120830     0.04425416     0.04425416   
  0.00993564     0.04213471     0.04213471   
  0.00883347     0.03983334     0.03983334   
  0.00754735     0.03717276     0.03717276   
  0.00651683     0.07919483     0.07919483   
  0.00761757     0.07679118     0.07679118   
  0.00867481     0.07416162     0.07416162   
  0.00968238     0.07148475     0.07148475   
  0.01054058     0.06871100     0.06871100   
  0.01131368     0.06575353     0.06575353   
  0.01202505     0.06280395     0.06280395   
  0.01245731     0.06003108     0.06003108   
  0.01257984     0.05736808     0.05736808   
  0.01246447     0.05470417     0.05470417   
  0.01203839     0.05192858     0.05192858   
  0.01133236     0.04897453     0.04897453   
  0.01056388     0.04601107     0.04601107   
  0.00970817     0.04323029     0.04323029   
  0.00870122     0.04054549     0.04054549   
  0.00764287     0.03790765     0.03790765   
  0.00654022     0.03549495     0.03549495   
  0.00546774     0.08102343     0.08102343   
  0.00639108     0.07845255     0.07845255   
  0.00736911     0.07566535     0.07566535   
  0.00828942     0.07272664     0.07272664   
  0.00908209     0.06970872     0.06970872   
  0.00975980     0.06665346     0.06665346   
  0.01036026     0.06355802     0.06355802   
  0.01077156     0.06044455     0.06044455   
  0.01090890     0.05736032     0.05736032   
  0.01077786     0.05427522     0.05427522   
  0.01037227     0.05115924     0.05115924   
  0.00977680     0.04805984     0.04805984   
  0.00910304     0.04499917     0.04499917   
  0.00831270     0.04197459     0.04197459   
  0.00739291     0.03902845     0.03902845   
  0.00641417     0.03623316     0.03623316   
  0.00548856     0.03365280     0.03365280   
  0.00449777     0.08278327     0.08278327   
  0.00525166     0.07991900     0.07991900   
  0.00607776     0.07694900     0.07694900   
  0.00688027     0.07383488     0.07383488   
  0.00759095     0.07062515     0.07062515   
  0.00819251     0.06735797     0.06735797   
  0.00867910     0.06405176     0.06405176   
  0.00901042     0.06071197     0.06071197   
  0.00913040     0.05735317     0.05735317   
  0.00901588     0.05399354     0.05399354   
  0.00868965     0.05065132     0.05065132   
  0.00820746     0.04734114     0.04734114   
  0.00760929     0.04406848     0.04406848   
  0.00690063     0.04085181     0.04085181   
  0.00609870     0.03772927     0.03772927   
  0.00527129     0.03474810     0.03474810   
  0.00451032     0.03186665     0.03186665   
  0.00330473     0.08434671     0.08434671   
  0.00413904     0.08123566     0.08123566   
  0.00483169     0.07805062     0.07805062   
  0.00549366     0.07476075     0.07476075   
  0.00608383     0.07137736     0.07137736   
  0.00658100     0.06793031     0.06793031   
  0.00697219     0.06443493     0.06443493   
  0.00722918     0.06090185     0.06090185   
  0.00732053     0.05734687     0.05734687   
  0.00723373     0.05379105     0.05379105   
  0.00698097     0.05025542     0.05025542   
  0.00659342     0.04675583     0.04675583   
  0.00609896     0.04330280     0.04330280   
  0.00551015     0.03991148     0.03991148   
  0.00484789     0.03661105     0.03661105   
  0.00415128     0.03341102     0.03341102   
  0.00331312     0.03028006     0.03028006   
  0.00222182     0.08564903     0.08564903   
  0.00301723     0.08237593     0.08237593   
  0.00360603     0.07898027     0.07898027   
  0.00411858     0.07551622     0.07551622   
  0.00457241     0.07197581     0.07197581   
  0.00495219     0.06837520     0.06837520   
  0.00524467     0.06472754     0.06472754   
  0.00543303     0.06104464     0.06104464   
  0.00549962     0.05734168     0.05734168   
  0.00543655     0.05363781     0.05363781   
  0.00525143     0.04995222     0.04995222   
  0.00496165     0.04630006     0.04630006   
  0.00458364     0.04269302     0.04269302   
  0.00413027     0.03914415     0.03914415   
  0.00361587     0.03566914     0.03566914   
  0.00302301     0.03226110     0.03226110   
  0.00222564     0.02897662     0.02897662   
  0.00148059     0.08670539     0.08670539   
  0.00194763     0.08325151     0.08325151   
  0.00238599     0.07969813     0.07969813   
  0.00274562     0.07608564     0.07608564   
  0.00305413     0.07241739     0.07241739   
  0.00330960     0.06869796     0.06869796   
  0.00350424     0.06493718     0.06493718   
  0.00362787     0.06114597     0.06114597   
  0.00367115     0.05733781     0.05733781   
  0.00363025     0.05352872     0.05352872   
  0.00350880     0.04973472     0.04973472   
  0.00331587     0.04596930     0.04596930   
  0.00306135     0.04224345     0.04224345   
  0.00275259     0.03856707     0.03856707   
  0.00239109     0.03494542     0.03494542   
  0.00195035     0.03138328     0.03138328   
  0.00147890     0.02792210     0.02792210   
  0.00074575     0.08730097     0.08730097   
  0.00095221     0.08376136     0.08376136   
  0.00118136     0.08013775     0.08013775   
  0.00137180     0.07643975     0.07643975   
  0.00152925     0.07268964     0.07268964   
  0.00165786     0.06889494     0.06889494   
  0.00175504     0.06506422     0.06506422   
  0.00181635     0.06120707     0.06120707   
  0.00183776     0.05733544     0.05733544   
  0.00181757     0.05346286     0.05346286   
  0.00175735     0.04960289     0.04960289   
  0.00166100     0.04576756     0.04576756   
  0.00153278     0.04196663     0.04196663   
  0.00137504     0.03820906     0.03820906   