<VTKFile type="UnstructuredGrid"  version="0.1"   > 
<UnstructuredGrid> 
<Piece  NumberOfPoints="  325" NumberOfCells=" 256"> 
<Points> 
<DataArray  type="Float64"  NumberOfComponents="3"  format="ascii" > 
24.000000 -2.000000 0.0 
24.375000 -2.000000 0.0 
24.750000 -2.000000 0.0 
25.125000 -2.000000 0.0 
25.500000 -2.000000 0.0 
25.875000 -2.000000 0.0 
26.250000 -2.000000 0.0 
26.625000 -2.000000 0.0 
27.000000 -2.000000 0.0 
27.375000 -2.000000 0.0 
27.750000 -2.000000 0.0 
28.125000 -2.000000 0.0 
28.500000 -2.000000 0.0 
28.875000 -2.000000 0.0 
29.250000 -2.000000 0.0 
29.625000 -2.000000 0.0 
30.000000 -2.000000 0.0 
30.375000 -2.000000 0.0 
30.750000 -2.000000 0.0 
31.125000 -2.000000 0.0 
31.500000 -2.000000 0.0 
31.875000 -2.000000 0.0 
32.250000 -2.000000 0.0 
32.625000 -2.000000 0.0 
33.000000 -2.000000 0.0 
33.375000 -2.000000 0.0 
33.750000 -2.000000 0.0 
34.125000 -2.000000 0.0 
34.500000 -2.000000 0.0 
34.875000 -2.000000 0.0 
35.250000 -2.000000 0.0 
35.625000 -2.000000 0.0 
36.000000 -2.000000 0.0 
36.375000 -2.000000 0.0 
36.750000 -2.000000 0.0 
37.125000 -2.000000 0.0 
37.500000 -2.000000 0.0 
37.875000 -2.000000 0.0 
38.250000 -2.000000 0.0 
38.625000 -2.000000 0.0 
39.000000 -2.000000 0.0 
39.375000 -2.000000 0.0 
39.750000 -2.000000 0.0 
40.125000 -2.000000 0.0 
40.500000 -2.000000 0.0 
40.875000 -2.000000 0.0 
41.250000 -2.000000 0.0 
41.625000 -2.000000 0.0 
42.000000 -2.000000 0.0 
42.375000 -2.000000 0.0 
42.750000 -2.000000 0.0 
43.125000 -2.000000 0.0 
43.500000 -2.000000 0.0 
43.875000 -2.000000 0.0 
44.250000 -2.000000 0.0 
44.625000 -2.000000 0.0 
45.000000 -2.000000 0.0 
45.375000 -2.000000 0.0 
45.750000 -2.000000 0.0 
46.125000 -2.000000 0.0 
46.500000 -2.000000 0.0 
46.875000 -2.000000 0.0 
47.250000 -2.000000 0.0 
47.625000 -2.000000 0.0 
48.000000 -2.000000 0.0 
24.000000 -1.000000 0.0 
24.375000 -1.000000 0.0 
24.750000 -1.000000 0.0 
25.125000 -1.000000 0.0 
25.500000 -1.000000 0.0 
25.875000 -1.000000 0.0 
26.250000 -1.000000 0.0 
26.625000 -1.000000 0.0 
27.000000 -1.000000 0.0 
27.375000 -1.000000 0.0 
27.750000 -1.000000 0.0 
28.125000 -1.000000 0.0 
28.500000 -1.000000 0.0 
28.875000 -1.000000 0.0 
29.250000 -1.000000 0.0 
29.625000 -1.000000 0.0 
30.000000 -1.000000 0.0 
30.375000 -1.000000 0.0 
30.750000 -1.000000 0.0 
31.125000 -1.000000 0.0 
31.500000 -1.000000 0.0 
31.875000 -1.000000 0.0 
32.250000 -1.000000 0.0 
32.625000 -1.000000 0.0 
33.000000 -1.000000 0.0 
33.375000 -1.000000 0.0 
33.750000 -1.000000 0.0 
34.125000 -1.000000 0.0 
34.500000 -1.000000 0.0 
34.875000 -1.000000 0.0 
35.250000 -1.000000 0.0 
35.625000 -1.000000 0.0 
36.000000 -1.000000 0.0 
36.375000 -1.000000 0.0 
36.750000 -1.000000 0.0 
37.125000 -1.000000 0.0 
37.500000 -1.000000 0.0 
37.875000 -1.000000 0.0 
38.250000 -1.000000 0.0 
38.625000 -1.000000 0.0 
39.000000 -1.000000 0.0 
39.375000 -1.000000 0.0 
39.750000 -1.000000 0.0 
40.125000 -1.000000 0.0 
40.500000 -1.000000 0.0 
40.875000 -1.000000 0.0 
41.250000 -1.000000 0.0 
41.625000 -1.000000 0.0 
42.000000 -1.000000 0.0 
42.375000 -1.000000 0.0 
42.750000 -1.000000 0.0 
43.125000 -1.000000 0.0 
43.500000 -1.000000 0.0 
43.875000 -1.000000 0.0 
44.250000 -1.000000 0.0 
44.625000 -1.000000 0.0 
45.000000 -1.000000 0.0 
45.375000 -1.000000 0.0 
45.750000 -1.000000 0.0 
46.125000 -1.000000 0.0 
46.500000 -1.000000 0.0 
46.875000 -1.000000 0.0 
47.250000 -1.000000 0.0 
47.625000 -1.000000 0.0 
48.000000 -1.000000 0.0 
24.000000 0.000000 0.0 
24.375000 0.000000 0.0 
24.750000 0.000000 0.0 
25.125000 0.000000 0.0 
25.500000 0.000000 0.0 
25.875000 0.000000 0.0 
26.250000 0.000000 0.0 
26.625000 0.000000 0.0 
27.000000 0.000000 0.0 
27.375000 0.000000 0.0 
27.750000 0.000000 0.0 
28.125000 0.000000 0.0 
28.500000 0.000000 0.0 
28.875000 0.000000 0.0 
29.250000 0.000000 0.0 
29.625000 0.000000 0.0 
30.000000 0.000000 0.0 
30.375000 0.000000 0.0 
30.750000 0.000000 0.0 
31.125000 0.000000 0.0 
31.500000 0.000000 0.0 
31.875000 0.000000 0.0 
32.250000 0.000000 0.0 
32.625000 0.000000 0.0 
33.000000 0.000000 0.0 
33.375000 0.000000 0.0 
33.750000 0.000000 0.0 
34.125000 0.000000 0.0 
34.500000 0.000000 0.0 
34.875000 0.000000 0.0 
35.250000 0.000000 0.0 
35.625000 0.000000 0.0 
36.000000 0.000000 0.0 
36.375000 0.000000 0.0 
36.750000 0.000000 0.0 
37.125000 0.000000 0.0 
37.500000 0.000000 0.0 
37.875000 0.000000 0.0 
38.250000 0.000000 0.0 
38.625000 0.000000 0.0 
39.000000 0.000000 0.0 
39.375000 0.000000 0.0 
39.750000 0.000000 0.0 
40.125000 0.000000 0.0 
40.500000 0.000000 0.0 
40.875000 0.000000 0.0 
41.250000 0.000000 0.0 
41.625000 0.000000 0.0 
42.000000 0.000000 0.0 
42.375000 0.000000 0.0 
42.750000 0.000000 0.0 
43.125000 0.000000 0.0 
43.500000 0.000000 0.0 
43.875000 0.000000 0.0 
44.250000 0.000000 0.0 
44.625000 0.000000 0.0 
45.000000 0.000000 0.0 
45.375000 0.000000 0.0 
45.750000 0.000000 0.0 
46.125000 0.000000 0.0 
46.500000 0.000000 0.0 
46.875000 0.000000 0.0 
47.250000 0.000000 0.0 
47.625000 0.000000 0.0 
48.000000 0.000000 0.0 
24.000000 1.000000 0.0 
24.375000 1.000000 0.0 
24.750000 1.000000 0.0 
25.125000 1.000000 0.0 
25.500000 1.000000 0.0 
25.875000 1.000000 0.0 
26.250000 1.000000 0.0 
26.625000 1.000000 0.0 
27.000000 1.000000 0.0 
27.375000 1.000000 0.0 
27.750000 1.000000 0.0 
28.125000 1.000000 0.0 
28.500000 1.000000 0.0 
28.875000 1.000000 0.0 
29.250000 1.000000 0.0 
29.625000 1.000000 0.0 
30.000000 1.000000 0.0 
30.375000 1.000000 0.0 
30.750000 1.000000 0.0 
31.125000 1.000000 0.0 
31.500000 1.000000 0.0 
31.875000 1.000000 0.0 
32.250000 1.000000 0.0 
32.625000 1.000000 0.0 
33.000000 1.000000 0.0 
33.375000 1.000000 0.0 
33.750000 1.000000 0.0 
34.125000 1.000000 0.0 
34.500000 1.000000 0.0 
34.875000 1.000000 0.0 
35.250000 1.000000 0.0 
35.625000 1.000000 0.0 
36.000000 1.000000 0.0 
36.375000 1.000000 0.0 
36.750000 1.000000 0.0 
37.125000 1.000000 0.0 
37.500000 1.000000 0.0 
37.875000 1.000000 0.0 
38.250000 1.000000 0.0 
38.625000 1.000000 0.0 
39.000000 1.000000 0.0 
39.375000 1.000000 0.0 
39.750000 1.000000 0.0 
40.125000 1.000000 0.0 
40.500000 1.000000 0.0 
40.875000 1.000000 0.0 
41.250000 1.000000 0.0 
41.625000 1.000000 0.0 
42.000000 1.000000 0.0 
42.375000 1.000000 0.0 
42.750000 1.000000 0.0 
43.125000 1.000000 0.0 
43.500000 1.000000 0.0 
43.875000 1.000000 0.0 
44.250000 1.000000 0.0 
44.625000 1.000000 0.0 
45.000000 1.000000 0.0 
45.375000 1.000000 0.0 
45.750000 1.000000 0.0 
46.125000 1.000000 0.0 
46.500000 1.000000 0.0 
46.875000 1.000000 0.0 
47.250000 1.000000 0.0 
47.625000 1.000000 0.0 
48.000000 1.000000 0.0 
24.000000 2.000000 0.0 
24.375000 2.000000 0.0 
24.750000 2.000000 0.0 
25.125000 2.000000 0.0 
25.500000 2.000000 0.0 
25.875000 2.000000 0.0 
26.250000 2.000000 0.0 
26.625000 2.000000 0.0 
27.000000 2.000000 0.0 
27.375000 2.000000 0.0 
27.750000 2.000000 0.0 
28.125000 2.000000 0.0 
28.500000 2.000000 0.0 
28.875000 2.000000 0.0 
29.250000 2.000000 0.0 
29.625000 2.000000 0.0 
30.000000 2.000000 0.0 
30.375000 2.000000 0.0 
30.750000 2.000000 0.0 
31.125000 2.000000 0.0 
31.500000 2.000000 0.0 
31.875000 2.000000 0.0 
32.250000 2.000000 0.0 
32.625000 2.000000 0.0 
33.000000 2.000000 0.0 
33.375000 2.000000 0.0 
33.750000 2.000000 0.0 
34.125000 2.000000 0.0 
34.500000 2.000000 0.0 
34.875000 2.000000 0.0 
35.250000 2.000000 0.0 
35.625000 2.000000 0.0 
36.000000 2.000000 0.0 
36.375000 2.000000 0.0 
36.750000 2.000000 0.0 
37.125000 2.000000 0.0 
37.500000 2.000000 0.0 
37.875000 2.000000 0.0 
38.250000 2.000000 0.0 
38.625000 2.000000 0.0 
39.000000 2.000000 0.0 
39.375000 2.000000 0.0 
39.750000 2.000000 0.0 
40.125000 2.000000 0.0 
40.500000 2.000000 0.0 
40.875000 2.000000 0.0 
41.250000 2.000000 0.0 
41.625000 2.000000 0.0 
42.000000 2.000000 0.0 
42.375000 2.000000 0.0 
42.750000 2.000000 0.0 
43.125000 2.000000 0.0 
43.500000 2.000000 0.0 
43.875000 2.000000 0.0 
44.250000 2.000000 0.0 
44.625000 2.000000 0.0 
45.000000 2.000000 0.0 
45.375000 2.000000 0.0 
45.750000 2.000000 0.0 
46.125000 2.000000 0.0 
46.500000 2.000000 0.0 
46.875000 2.000000 0.0 
47.250000 2.000000 0.0 
47.625000 2.000000 0.0 
48.000000 2.000000 0.0 
</DataArray> 
</Points> 
<Cells> 
<DataArray  type="Int32"  Name="connectivity"  format="ascii"> 
0 1 66 65 
1 2 67 66 
2 3 68 67 
3 4 69 68 
4 5 70 69 
5 6 71 70 
6 7 72 71 
7 8 73 72 
8 9 74 73 
9 10 75 74 
10 11 76 75 
11 12 77 76 
12 13 78 77 
13 14 79 78 
14 15 80 79 
15 16 81 80 
16 17 82 81 
17 18 83 82 
18 19 84 83 
19 20 85 84 
20 21 86 85 
21 22 87 86 
22 23 88 87 
23 24 89 88 
24 25 90 89 
25 26 91 90 
26 27 92 91 
27 28 93 92 
28 29 94 93 
29 30 95 94 
30 31 96 95 
31 32 97 96 
32 33 98 97 
33 34 99 98 
34 35 100 99 
35 36 101 100 
36 37 102 101 
37 38 103 102 
38 39 104 103 
39 40 105 104 
40 41 106 105 
41 42 107 106 
42 43 108 107 
43 44 109 108 
44 45 110 109 
45 46 111 110 
46 47 112 111 
47 48 113 112 
48 49 114 113 
49 50 115 114 
50 51 116 115 
51 52 117 116 
52 53 118 117 
53 54 119 118 
54 55 120 119 
55 56 121 120 
56 57 122 121 
57 58 123 122 
58 59 124 123 
59 60 125 124 
60 61 126 125 
61 62 127 126 
62 63 128 127 
63 64 129 128 
65 66 131 130 
66 67 132 131 
67 68 133 132 
68 69 134 133 
69 70 135 134 
70 71 136 135 
71 72 137 136 
72 73 138 137 
73 74 139 138 
74 75 140 139 
75 76 141 140 
76 77 142 141 
77 78 143 142 
78 79 144 143 
79 80 145 144 
80 81 146 145 
81 82 147 146 
82 83 148 147 
83 84 149 148 
84 85 150 149 
85 86 151 150 
86 87 152 151 
87 88 153 152 
88 89 154 153 
89 90 155 154 
90 91 156 155 
91 92 157 156 
92 93 158 157 
93 94 159 158 
94 95 160 159 
95 96 161 160 
96 97 162 161 
97 98 163 162 
98 99 164 163 
99 100 165 164 
100 101 166 165 
101 102 167 166 
102 103 168 167 
103 104 169 168 
104 105 170 169 
105 106 171 170 
106 107 172 171 
107 108 173 172 
108 109 174 173 
109 110 175 174 
110 111 176 175 
111 112 177 176 
112 113 178 177 
113 114 179 178 
114 115 180 179 
115 116 181 180 
116 117 182 181 
117 118 183 182 
118 119 184 183 
119 120 185 184 
120 121 186 185 
121 122 187 186 
122 123 188 187 
123 124 189 188 
124 125 190 189 
125 126 191 190 
126 127 192 191 
127 128 193 192 
128 129 194 193 
130 131 196 195 
131 132 197 196 
132 133 198 197 
133 134 199 198 
134 135 200 199 
135 136 201 200 
136 137 202 201 
137 138 203 202 
138 139 204 203 
139 140 205 204 
140 141 206 205 
141 142 207 206 
142 143 208 207 
143 144 209 208 
144 145 210 209 
145 146 211 210 
146 147 212 211 
147 148 213 212 
148 149 214 213 
149 150 215 214 
150 151 216 215 
151 152 217 216 
152 153 218 217 
153 154 219 218 
154 155 220 219 
155 156 221 220 
156 157 222 221 
157 158 223 222 
158 159 224 223 
159 160 225 224 
160 161 226 225 
161 162 227 226 
162 163 228 227 
163 164 229 228 
164 165 230 229 
165 166 231 230 
166 167 232 231 
167 168 233 232 
168 169 234 233 
169 170 235 234 
170 171 236 235 
171 172 237 236 
172 173 238 237 
173 174 239 238 
174 175 240 239 
175 176 241 240 
176 177 242 241 
177 178 243 242 
178 179 244 243 
179 180 245 244 
180 181 246 245 
181 182 247 246 
182 183 248 247 
183 184 249 248 
184 185 250 249 
185 186 251 250 
186 187 252 251 
187 188 253 252 
188 189 254 253 
189 190 255 254 
190 191 256 255 
191 192 257 256 
192 193 258 257 
193 194 259 258 
195 196 261 260 
196 197 262 261 
197 198 263 262 
198 199 264 263 
199 200 265 264 
200 201 266 265 
201 202 267 266 
202 203 268 267 
203 204 269 268 
204 205 270 269 
205 206 271 270 
206 207 272 271 
207 208 273 272 
208 209 274 273 
209 210 275 274 
210 211 276 275 
211 212 277 276 
212 213 278 277 
213 214 279 278 
214 215 280 279 
215 216 281 280 
216 217 282 281 
217 218 283 282 
218 219 284 283 
219 220 285 284 
220 221 286 285 
221 222 287 286 
222 223 288 287 
223 224 289 288 
224 225 290 289 
225 226 291 290 
226 227 292 291 
227 228 293 292 
228 229 294 293 
229 230 295 294 
230 231 296 295 
231 232 297 296 
232 233 298 297 
233 234 299 298 
234 235 300 299 
235 236 301 300 
236 237 302 301 
237 238 303 302 
238 239 304 303 
239 240 305 304 
240 241 306 305 
241 242 307 306 
242 243 308 307 
243 244 309 308 
244 245 310 309 
245 246 311 310 
246 247 312 311 
247 248 313 312 
248 249 314 313 
249 250 315 314 
250 251 316 315 
251 252 317 316 
252 253 318 317 
253 254 319 318 
254 255 320 319 
255 256 321 320 
256 257 322 321 
257 258 323 322 
258 259 324 323 
</DataArray> 
<DataArray  type="Int32"  Name="offsets"  format="ascii"> 
4 
8 
12 
16 
20 
24 
28 
32 
36 
40 
44 
48 
52 
56 
60 
64 
68 
72 
76 
80 
84 
88 
92 
96 
100 
104 
108 
112 
116 
120 
124 
128 
132 
136 
140 
144 
148 
152 
156 
160 
164 
168 
172 
176 
180 
184 
188 
192 
196 
200 
204 
208 
212 
216 
220 
224 
228 
232 
236 
240 
244 
248 
252 
256 
260 
264 
268 
272 
276 
280 
284 
288 
292 
296 
300 
304 
308 
312 
316 
320 
324 
328 
332 
336 
340 
344 
348 
352 
356 
360 
364 
368 
372 
376 
380 
384 
388 
392 
396 
400 
404 
408 
412 
416 
420 
424 
428 
432 
436 
440 
444 
448 
452 
456 
460 
464 
468 
472 
476 
480 
484 
488 
492 
496 
500 
504 
508 
512 
516 
520 
524 
528 
532 
536 
540 
544 
548 
552 
556 
560 
564 
568 
572 
576 
580 
584 
588 
592 
596 
600 
604 
608 
612 
616 
620 
624 
628 
632 
636 
640 
644 
648 
652 
656 
660 
664 
668 
672 
676 
680 
684 
688 
692 
696 
700 
704 
708 
712 
716 
720 
724 
728 
732 
736 
740 
744 
748 
752 
756 
760 
764 
768 
772 
776 
780 
784 
788 
792 
796 
800 
804 
808 
812 
816 
820 
824 
828 
832 
836 
840 
844 
848 
852 
856 
860 
864 
868 
872 
876 
880 
884 
888 
892 
896 
900 
904 
908 
912 
916 
920 
924 
928 
932 
936 
940 
944 
948 
952 
956 
960 
964 
968 
972 
976 
980 
984 
988 
992 
996 
1000 
1004 
1008 
1012 
1016 
1020 
1024 
</DataArray> 
<DataArray  type="UInt8"  Name="types"  format="ascii"> 
9 
9 
9 
9 
9 
9 
9 
9 
9 
9 
9 
9 
9 
9 
9 
9 
9 
9 
9 
9 
9 
9 
9 
9 
9 
9 
9 
9 
9 
9 
9 
9 
9 
9 
9 
9 
9 
9 
9 
9 
9 
9 
9 
9 
9 
9 
9 
9 
9 
9 
9 
9 
9 
9 
9 
9 
9 
9 
9 
9 
9 
9 
9 
9 
9 
9 
9 
9 
9 
9 
9 
9 
9 
9 
9 
9 
9 
9 
9 
9 
9 
9 
9 
9 
9 
9 
9 
9 
9 
9 
9 
9 
9 
9 
9 
9 
9 
9 
9 
9 
9 
9 
9 
9 
9 
9 
9 
9 
9 
9 
9 
9 
9 
9 
9 
9 
9 
9 
9 
9 
9 
9 
9 
9 
9 
9 
9 
9 
9 
9 
9 
9 
9 
9 
9 
9 
9 
9 
9 
9 
9 
9 
9 
9 
9 
9 
9 
9 
9 
9 
9 
9 
9 
9 
9 
9 
9 
9 
9 
9 
9 
9 
9 
9 
9 
9 
9 
9 
9 
9 
9 
9 
9 
9 
9 
9 
9 
9 
9 
9 
9 
9 
9 
9 
9 
9 
9 
9 
9 
9 
9 
9 
9 
9 
9 
9 
9 
9 
9 
9 
9 
9 
9 
9 
9 
9 
9 
9 
9 
9 
9 
9 
9 
9 
9 
9 
9 
9 
9 
9 
9 
9 
9 
9 
9 
9 
9 
9 
9 
9 
9 
9 
9 
9 
9 
9 
9 
9 
9 
9 
9 
9 
9 
9 
9 
9 
9 
9 
9 
9 
9 
9 
9 
9 
9 
9 
</DataArray> 
</Cells> 
<PointData  Vectors="sigma"> 
<DataArray  type="Float64"  Name="sigma" NumberOfComponents="3" format="ascii"> 
-67555.296114   -26761.100411   -24195.526903   
-45113.217787   -1181.587471   -2561.123454   
-35737.272732   701.204905   -284.747897   
-34483.519297   234.109793   263.211448   
-33505.989261   213.309742   83.338627   
-33102.125197   40.872929   63.438556   
-32531.373374   30.481520   10.769453   
-32020.439611   1.100704   9.203238   
-31470.528995   1.803035   0.504319   
-30923.875159   -1.909492   0.950695   
-30367.513053   -0.813263   -0.341335   
-29809.271673   -0.930410   -0.077678   
-29248.536666   -0.425287   -0.194040   
-28686.962260   -0.295626   -0.082806   
-28124.818923   -0.127019   -0.066673   
-27562.467459   -0.072734   -0.028988   
-27000.009294   -0.027522   -0.017556   
-26437.518779   -0.013760   -0.007044   
-25875.014593   -0.003895   -0.003629   
-25312.510012   -0.001605   -0.001199   
-24750.005622   0.000034   -0.000522   
-24187.503151   0.000119   -0.000077   
-23625.001513   0.000258   -0.000011   
-23062.500745   0.000142   0.000042   
-22500.000306   0.000110   0.000025   
-21937.500129   0.000052   0.000023   
-21375.000039   0.000032   0.000011   
-20812.500010   0.000013   0.000007   
-20249.999998   0.000007   0.000003   
-19687.499996   0.000003   0.000002   
-19124.999997   0.000001   0.000001   
-18562.499998   0.000000   0.000000   
-17999.999999   0.000000   0.000000   
-17437.500000   0.000000   -0.000000   
-16875.000001   0.000000   -0.000000   
-16312.500003   0.000000   -0.000000   
-15750.000006   0.000000   0.000000   
-15187.500011   0.000000   0.000001   
-14625.000021   -0.000002   0.000002   
-14062.500032   -0.000007   0.000006   
-13500.000046   -0.000023   0.000014   
-12937.500038   -0.000054   0.000032   
-12374.999977   -0.000132   0.000061   
-11812.499726   -0.000262   0.000126   
-11249.999078   -0.000558   0.000202   
-10687.497395   -0.000959   0.000359   
-10124.993841   -0.001787   0.000402   
-9562.486012   -0.002397   0.000471   
-8999.971661   -0.003476   -0.000572   
-8437.443855   -0.000823   -0.002544   
-7874.901702   0.004740   -0.011005   
-7312.333666   0.035071   -0.025517   
-6749.776027   0.090028   -0.069625   
-6187.252195   0.267021   -0.137134   
-5625.055581   0.553793   -0.315737   
-5063.498542   1.331646   -0.544941   
-4504.136257   2.410625   -1.112956   
-3948.618761   5.101819   -1.587364   
-3403.578684   7.754073   -2.675736   
-2875.982189   13.939151   -1.298745   
-2392.772479   11.832617   3.725655   
-1985.072499   5.501324   33.485144   
-1732.810232   -65.901403   95.729678   
-1510.781124   -155.406358   171.106851   
-22.649552   820.350321   -854.353000   
-14070.607625   -3263.626045   158.956106   
-14786.583363   -3021.983730   -384.959932   
-15915.829097   -2090.331238   -1151.567095   
-16481.844693   -1020.229915   -1343.721359   
-16626.684911   -457.316889   -1264.719365   
-16527.241378   -191.155199   -1187.852960   
-16309.711377   -72.254275   -1147.371446   
-16044.831902   -22.765888   -1130.896181   
-15763.539129   -4.155973   -1125.271427   
-15478.371318   1.594892   -1123.881867   
-15193.381990   2.543102   -1123.876478   
-14909.523257   2.044526   -1124.203350   
-14626.692403   1.333302   -1124.511146   
-14344.567806   0.775272   -1124.728402   
-14062.868545   0.415407   -1124.858897   
-13781.402296   0.207640   -1124.931999   
-13500.055625   0.097031   -1124.969149   
-13218.765898   0.041993   -1124.987309   
-12937.501631   0.016447   -1124.995306   
-12656.247656   0.005452   -1124.998668   
-12374.997367   0.001196   -1124.999847   
-12093.748051   -0.000192   -1125.000193   
-11812.498782   -0.000475   -1125.000215   
-11531.249311   -0.000408   -1125.000162   
-11249.999639   -0.000274   -1125.000101   
-10968.749823   -0.000162   -1125.000057   
-10687.499919   -0.000088   -1125.000030   
-10406.249966   -0.000045   -1125.000015   
-10124.999987   -0.000021   -1125.000007   
-9843.749996   -0.000009   -1125.000003   
-9562.499999   -0.000004   -1125.000001   
-9281.250000   -0.000001   -1125.000000   
-9000.000000   -0.000001   -1125.000000   
-8718.750000   -0.000001   -1125.000000   
-8437.499999   -0.000001   -1125.000000   
-8156.249997   -0.000001   -1124.999999   
-7874.999996   -0.000001   -1124.999999   
-7593.749994   0.000001   -1125.000000   
-7312.499993   0.000008   -1125.000002   
-7031.249998   0.000028   -1125.000008   
-6750.000022   0.000076   -1125.000023   
-6468.750092   0.000182   -1125.000057   
-6187.500270   0.000400   -1125.000130   
-5906.250680   0.000821   -1125.000275   
-5625.001555   0.001575   -1125.000545   
-5343.753302   0.002802   -1125.001008   
-5062.506556   0.004516   -1125.001709   
-4781.262131   0.006208   -1125.002572   
-4500.020641   0.005800   -1125.003047   
-4218.781099   -0.002680   -1125.001452   
-3937.537259   -0.034251   -1124.993109   
-3656.268441   -0.122860   -1124.967340   
-3374.920011   -0.340689   -1124.899983   
-3093.361174   -0.829298   -1124.743281   
-2811.307756   -1.851441   -1124.402769   
-2528.173845   -3.846426   -1123.717309   
-2242.851185   -7.480605   -1122.418194   
-1953.357760   -13.518040   -1120.179986   
-1656.594906   -22.330531   -1116.769212   
-1348.401731   -31.963803   -1112.929545   
-1025.764996   -33.464268   -1111.960541   
-692.684848   2.480133   -1121.905387   
-374.753234   154.296086   -1143.689785   
-132.962574   581.985998   -1117.995287   
-41.123576   890.772782   -1079.608918   
0.000000   0.000000   2065.414373   
0.000000   0.000000   1279.172340   
0.000000   0.000000   101.137450   
0.000000   -0.000000   -604.051842   
0.000000   -0.000000   -1088.904890   
0.000000   -0.000000   -1339.842818   
0.000000   -0.000000   -1450.456350   
0.000000   -0.000000   -1491.830555   
0.000000   -0.000000   -1504.227787   
0.000000   -0.000000   -1505.985119   
0.000000   -0.000000   -1504.679482   
0.000000   -0.000000   -1503.008923   
0.000000   -0.000000   -1501.734050   
0.000000   -0.000000   -1500.922052   
0.000000   -0.000000   -1500.458289   
0.000000   -0.000000   -1500.212484   
0.000000   -0.000000   -1500.091350   
0.000000   -0.000000   -1500.035276   
0.000000   -0.000000   -1500.011468   
0.000000   -0.000000   -1500.002302   
0.000000   -0.000000   -1499.999417   
0.000000   -0.000000   -1499.998870   
0.000000   -0.000000   -1499.999066   
0.000000   -0.000000   -1499.999381   
0.000000   -0.000000   -1499.999638   
0.000000   -0.000000   -1499.999804   
0.000000   -0.000000   -1499.999902   
0.000000   -0.000000   -1499.999954   
0.000000   -0.000000   -1499.999980   
0.000000   -0.000000   -1499.999992   
0.000000   -0.000000   -1499.999997   
0.000000   -0.000000   -1499.999999   
0.000000   -0.000000   -1500.000000   
0.000000   -0.000000   -1500.000001   
0.000000   -0.000000   -1500.000001   
0.000000   -0.000000   -1500.000002   
-0.000000   -0.000000   -1500.000003   
-0.000000   -0.000000   -1500.000002   
-0.000000   -0.000000   -1499.999998   
-0.000000   -0.000000   -1499.999983   
-0.000000   -0.000000   -1499.999940   
-0.000000   -0.000000   -1499.999835   
-0.000000   -0.000000   -1499.999603   
-0.000000   -0.000000   -1499.999119   
-0.000000   -0.000000   -1499.998182   
-0.000000   -0.000000   -1499.996487   
-0.000000   -0.000000   -1499.993705   
-0.000000   -0.000000   -1499.989733   
-0.000000   -0.000000   -1499.985616   
-0.000000   -0.000000   -1499.985674   
-0.000000   -0.000000   -1500.002908   
-0.000000   -0.000000   -1500.069711   
-0.000000   -0.000000   -1500.261234   
-0.000000   -0.000000   -1500.735590   
-0.000000   -0.000000   -1501.810856   
-0.000000   -0.000000   -1504.070170   
-0.000000   -0.000000   -1508.521102   
-0.000000   -0.000000   -1516.649928   
0.000000   -0.000000   -1530.226451   
0.000000   -0.000000   -1549.766867   
0.000000   -0.000000   -1570.612946   
0.000000   -0.000000   -1573.730814   
-0.000000   -0.000000   -1518.288574   
-0.000000   -0.000000   -1341.413515   
-0.000000   -0.000000   -1213.412627   
14070.607625   3263.626045   158.956106   
14786.583363   3021.983730   -384.959932   
15915.829097   2090.331238   -1151.567095   
16481.844693   1020.229915   -1343.721359   
16626.684911   457.316889   -1264.719365   
16527.241378   191.155199   -1187.852960   
16309.711377   72.254275   -1147.371446   
16044.831902   22.765888   -1130.896181   
15763.539129   4.155973   -1125.271427   
15478.371318   -1.594892   -1123.881867   
15193.381990   -2.543102   -1123.876478   
14909.523257   -2.044526   -1124.203350   
14626.692403   -1.333302   -1124.511146   
14344.567806   -0.775272   -1124.728402   
14062.868545   -0.415407   -1124.858897   
13781.402296   -0.207640   -1124.931999   
13500.055625   -0.097031   -1124.969149   
13218.765898   -0.041993   -1124.987309   
12937.501631   -0.016447   -1124.995306   
12656.247656   -0.005452   -1124.998668   
12374.997367   -0.001196   -1124.999847   
12093.748051   0.000192   -1125.000193   
11812.498782   0.000475   -1125.000215   
11531.249311   0.000408   -1125.000162   
11249.999639   0.000273   -1125.000101   
10968.749823   0.000162   -1125.000057   
10687.499919   0.000088   -1125.000030   
10406.249966   0.000045   -1125.000015   
10124.999987   0.000021   -1125.000007   
9843.749996   0.000009   -1125.000003   
9562.499999   0.000004   -1125.000001   
9281.250000   0.000001   -1125.000000   
9000.000000   0.000001   -1125.000000   
8718.750000   0.000001   -1125.000000   
8437.499999   0.000001   -1125.000000   
8156.249997   0.000001   -1124.999999   
7874.999996   0.000001   -1124.999999   
7593.749994   -0.000001   -1125.000000   
7312.499993   -0.000008   -1125.000002   
7031.249998   -0.000028   -1125.000008   
6750.000022   -0.000076   -1125.000023   
6468.750092   -0.000182   -1125.000057   
6187.500270   -0.000400   -1125.000130   
5906.250680   -0.000821   -1125.000275   
5625.001555   -0.001575   -1125.000545   
5343.753302   -0.002802   -1125.001008   
5062.506556   -0.004516   -1125.001709   
4781.262131   -0.006208   -1125.002572   
4500.020641   -0.005800   -1125.003047   
4218.781099   0.002680   -1125.001452   
3937.537259   0.034251   -1124.993109   
3656.268441   0.122860   -1124.967340   
3374.920011   0.340689   -1124.899983   
3093.361174   0.829298   -1124.743281   
2811.307756   1.851441   -1124.402769   
2528.173845   3.846426   -1123.717309   
2242.851185   7.480605   -1122.418194   
1953.357760   13.518040   -1120.179986   
1656.594906   22.330531   -1116.769212   
1348.401731   31.963803   -1112.929545   
1025.764996   33.464268   -1111.960541   
692.684848   -2.480133   -1121.905387   
374.753234   -154.296086   -1143.689785   
132.962574   -581.985998   -1117.995287   
41.123576   -890.772782   -1079.608918   
45113.217787   1181.587471   -2561.123454   
51646.284423   13029.947753   -12240.137400   
39798.368542   473.738839   -1148.956003   
34621.630997   -457.257324   -100.704635   
33792.822247   -137.491361   163.325002   
33018.681318   -121.895631   47.054040   
32561.282404   -20.986816   36.320897   
32000.951185   -16.142277   5.636886   
31472.157385   0.404394   5.076967   
30919.021024   -0.494886   0.081492   
30366.573416   1.419951   0.436509   
29808.024860   0.619275   -0.267687   
29248.116966   0.613018   -0.080242   
28686.677795   0.276153   -0.130357   
28124.714860   0.184180   -0.055897   
27562.414108   0.077270   -0.042115   
26999.993119   0.043247   -0.018016   
26437.511943   0.015708   -0.010593   
25875.014396   0.007683   -0.004122   
25312.510108   0.001930   -0.002076   
24750.006581   0.000743   -0.000638   
24187.503568   -0.000146   -0.000267   
23625.001948   -0.000130   -0.000017   
23062.500910   -0.000184   0.000007   
22500.000437   -0.000097   0.000032   
21937.500172   -0.000071   0.000018   
21375.000070   -0.000033   0.000015   
20812.500018   -0.000020   0.000007   
20250.000003   -0.000008   0.000005   
19687.499997   -0.000004   0.000002   
19124.999997   -0.000001   0.000001   
18562.499998   -0.000001   0.000000   
17999.999999   -0.000000   0.000000   
17437.500000   -0.000000   -0.000000   
16875.000001   -0.000000   -0.000000   
16312.500003   -0.000000   -0.000000   
15750.000007   -0.000000   0.000000   
15187.500013   0.000001   0.000001   
14625.000022   0.000003   0.000004   
14062.500033   0.000013   0.000008   
13500.000035   0.000030   0.000019   
12937.500011   0.000078   0.000038   
12374.999882   0.000158   0.000079   
11812.499528   0.000345   0.000132   
11249.998560   0.000611   0.000242   
10687.496459   0.001173   0.000302   
10124.991704   0.001678   0.000415   
9562.482751   0.002632   -0.000085   
8999.964934   0.001610   -0.001036   
8437.436682   -0.000632   -0.005788   
7874.888760   -0.017124   -0.014030   
7312.338865   -0.047384   -0.040315   
6749.792930   -0.151046   -0.081326   
6187.415804   -0.321910   -0.192681   
5625.375369   -0.799333   -0.341038   
5064.595919   -1.482209   -0.714346   
4506.058652   -3.216732   -1.066152   
3953.857470   -5.082349   -1.894346   
3412.300475   -9.520485   -1.443054   
2898.175581   -9.793345   0.524959   
2430.527344   -9.720238   16.093199   
2062.791356   27.034393   49.727666   
1747.926811   74.952517   102.295998   
877.729892   -377.224459   -379.311661   
1510.781124   155.406358   171.106851   
</DataArray> 
<DataArray  type="Float64"  Name="U" NumberOfComponents="3" format="ascii"> 
 -0.01323628    -0.08647380    -0.08647380   
 -0.01389180    -0.08922572    -0.08922572   
 -0.01438007    -0.09196415    -0.09196415   
 -0.01482139    -0.09475484    -0.09475484   
 -0.01524562    -0.09761403    -0.09761403   
 -0.01566284    -0.10054462    -0.10054462   
 -0.01607299    -0.10355076    -0.10355076   
 -0.01647658    -0.10663179    -0.10663179   
 -0.01687339    -0.10978750    -0.10978750   
 -0.01726337    -0.11301673    -0.11301673   
 -0.01764643    -0.11631839    -0.11631839   
 -0.01802254    -0.11969120    -0.11969120   
 -0.01839165    -0.12313387    -0.12313387   
 -0.01875375    -0.12664510    -0.12664510   
 -0.01910882    -0.13022357    -0.13022357   
 -0.01945686    -0.13386796    -0.13386796   
 -0.01979788    -0.13757695    -0.13757695   
 -0.02013186    -0.14134922    -0.14134922   
 -0.02045882    -0.14518345    -0.14518345   
 -0.02077874    -0.14907834    -0.14907834   
 -0.02109163    -0.15303254    -0.15303254   
 -0.02139749    -0.15704476    -0.15704476   
 -0.02169632    -0.16111366    -0.16111366   
 -0.02198811    -0.16523794    -0.16523794   
 -0.02227288    -0.16941626    -0.16941626   
 -0.02255061    -0.17364733    -0.17364733   
 -0.02282132    -0.17792981    -0.17792981   
 -0.02308499    -0.18226238    -0.18226238   
 -0.02334163    -0.18664374    -0.18664374   
 -0.02359124    -0.19107255    -0.19107255   
 -0.02383382    -0.19554751    -0.19554751   
 -0.02406936    -0.20006730    -0.20006730   
 -0.02429788    -0.20463059    -0.20463059   
 -0.02451936    -0.20923606    -0.20923606   
 -0.02473382    -0.21388241    -0.21388241   
 -0.02494124    -0.21856830    -0.21856830   
 -0.02514163    -0.22329243    -0.22329243   
 -0.02533499    -0.22805348    -0.22805348   
 -0.02552132    -0.23285011    -0.23285011   
 -0.02570061    -0.23768103    -0.23768103   
 -0.02587288    -0.24254491    -0.24254491   
 -0.02603811    -0.24744042    -0.24744042   
 -0.02619632    -0.25236626    -0.25236626   