<VTKFile type="UnstructuredGrid"  version="0.1"   > 
<UnstructuredGrid> 
<Piece  NumberOfPoints="  81" NumberOfCells=" 64"> 
<Points> 
<DataArray  type="Float64"  NumberOfComponents="3"  format="ascii" > 
0.000000 -3.000000 0.0 
3.000000 -3.000000 0.0 
6.000000 -3.000000 0.0 
9.000000 -3.000000 0.0 
12.000000 -3.000000 0.0 
15.000000 -3.000000 0.0 
18.000000 -3.000000 0.0 
21.000000 -3.000000 0.0 
24.000000 -3.000000 0.0 
0.000000 -2.250000 0.0 
3.000000 -2.250000 0.0 
6.000000 -2.250000 0.0 
9.000000 -2.250000 0.0 
12.000000 -2.250000 0.0 
15.000000 -2.250000 0.0 
18.000000 -2.250000 0.0 
21.000000 -2.250000 0.0 
24.000000 -2.250000 0.0 
0.000000 -1.500000 0.0 
3.000000 -1.500000 0.0 
6.000000 -1.500000 0.0 
9.000000 -1.500000 0.0 
12.000000 -1.500000 0.0 
15.000000 -1.500000 0.0 
18.000000 -1.500000 0.0 
21.000000 -1.500000 0.0 
24.000000 -1.500000 0.0 
0.000000 -0.750000 0.0 
3.000000 -0.750000 0.0 
6.000000 -0.750000 0.0 
9.000000 -0.750000 0.0 
12.000000 -0.750000 0.0 
15.000000 -0.750000 0.0 
18.000000 -0.750000 0.0 
21.000000 -0.750000 0.0 
24.000000 -0.750000 0.0 
0.000000 0.000000 0.0 
3.000000 0.000000 0.0 
6.000000 0.000000 0.0 
9.000000 0.000000 0.0 
12.000000 0.000000 0.0 
15.000000 0.000000 0.0 
18.000000 0.000000 0.0 
21.000000 0.000000 0.0 
24.000000 0.000000 0.0 
0.000000 0.750000 0.0 
3.000000 0.750000 0.0 
6.000000 0.750000 0.0 
9.000000 0.750000 0.0 
12.000000 0.750000 0.0 
15.000000 0.750000 0.0 
18.000000 0.750000 0.0 
21.000000 0.750000 0.0 
24.000000 0.750000 0.0 
0.000000 1.500000 0.0 
3.000000 1.500000 0.0 
6.000000 1.500000 0.0 
9.000000 1.500000 0.0 
12.000000 1.500000 0.0 
15.000000 1.500000 0.0 
18.000000 1.500000 0.0 
21.000000 1.500000 0.0 
24.000000 1.500000 0.0 
0.000000 2.250000 0.0 
3.000000 2.250000 0.0 
6.000000 2.250000 0.0 
9.000000 2.250000 0.0 
12.000000 2.250000 0.0 
15.000000 2.250000 0.0 
18.000000 2.250000 0.0 
21.000000 2.250000 0.0 
24.000000 2.250000 0.0 
0.000000 3.000000 0.0 
3.000000 3.000000 0.0 
6.000000 3.000000 0.0 
9.000000 3.000000 0.0 
12.000000 3.000000 0.0 
15.000000 3.000000 0.0 
18.000000 3.000000 0.0 
21.000000 3.000000 0.0 
24.000000 3.000000 0.0 
</DataArray> 
</Points> 
<Cells> 
<DataArray  type="Int32"  Name="connectivity"  format="ascii"> 
0 1 10 9 
1 2 11 10 
2 3 12 11 
3 4 13 12 
4 5 14 13 
5 6 15 14 
6 7 16 15 
7 8 17 16 
9 10 19 18 
10 11 20 19 
11 12 21 20 
12 13 22 21 
13 14 23 22 
14 15 24 23 
15 16 25 24 
16 17 26 25 
18 19 28 27 
19 20 29 28 
20 21 30 29 
21 22 31 30 
22 23 32 31 
23 24 33 32 
24 25 34 33 
25 26 35 34 
27 28 37 36 
28 29 38 37 
29 30 39 38 
30 31 40 39 
31 32 41 40 
32 33 42 41 
33 34 43 42 
34 35 44 43 
36 37 46 45 
37 38 47 46 
38 39 48 47 
39 40 49 48 
40 41 50 49 
41 42 51 50 
42 43 52 51 
43 44 53 52 
45 46 55 54 
46 47 56 55 
47 48 57 56 
48 49 58 57 
49 50 59 58 
50 51 60 59 
51 52 61 60 
52 53 62 61 
54 55 64 63 
55 56 65 64 
56 57 66 65 
57 58 67 66 
58 59 68 67 
59 60 69 68 
60 61 70 69 
61 62 71 70 
63 64 73 72 
64 65 74 73 
65 66 75 74 
66 67 76 75 
67 68 77 76 
68 69 78 77 
69 70 79 78 
70 71 80 79 
</DataArray> 
<DataArray  type="Int32"  Name="offsets"  format="ascii"> 
4 
8 
12 
16 
20 
24 
28 
32 
36 
40 
44 
48 
52 
56 
60 
64 
68 
72 
76 
80 
84 
88 
92 
96 
100 
104 
108 
112 
116 
120 
124 
128 
132 
136 
140 
144 
148 
152 
156 
160 
164 
168 
172 
176 
180 
184 
188 
192 
196 
200 
204 
208 
212 
216 
220 
224 
228 
232 
236 
240 
244 
248 
252 
256 
</DataArray> 
<DataArray  type="UInt8"  Name="types"  format="ascii"> 
9 
9 
9 
9 
9 
9 
9 
9 
9 
9 
9 
9 
9 
9 
9 
9 
9 
9 
9 
9 
9 
9 
9 
9 
9 
9 
9 
9 
9 
9 
9 
9 
9 
9 
9 
9 
9 
9 
9 
9 
9 
9 
9 
9 
9 
9 
9 
9 
9 
9 
9 
9 
9 
9 
9 
9 
9 
9 
9 
9 
9 
9 
9 
9 
</DataArray> 
</Cells> 
<PointData  Vectors="sigma"> 
<DataArray  type="Float64"  Name="sigma" NumberOfComponents="3" format="ascii"> 
-8076.531346   -308.642830   -42.205471   
-7581.149703   -308.507093   -51.524377   
-7075.767794   -288.435816   -51.123152   
-6570.104140   -267.196681   -51.169474   
-6064.862375   -247.000219   -51.155909   
-5559.371493   -226.232524   -51.162657   
-5054.018349   -205.761016   -51.158293   
-4548.602377   -185.134793   -51.159906   
-4043.113649   -164.545551   -51.209870   
-5809.426864   -11.405613   -106.276748   
-5616.157773   4.288512   -104.743221   
-5241.742766   0.238412   -105.057127   
-4867.558687   -0.211726   -105.228759   
-4493.016048   0.118781   -105.129398   
-4118.657241   -0.063614   -105.180575   
-3744.201055   0.035600   -105.154480   
-3369.812306   -0.019921   -105.177581   
-3179.522647   10.282416   -105.130339   
-3872.420272   -9.418985   -183.499353   
-3744.555691   -0.141727   -183.399563   
-3494.632953   -0.087257   -183.214938   
-3244.953998   0.091826   -183.120426   
-2995.389360   -0.058987   -183.198492   
-2745.745753   0.035695   -183.150558   
-2496.150736   -0.022487   -183.176482   
-2246.505946   0.014153   -183.151292   
-2118.592909   10.301329   -183.205813   
-1938.087084   -10.248161   -230.531036   
-1872.211279   0.538331   -230.198842   
-1747.294824   0.048246   -229.948830   
-1622.492552   -0.014700   -229.979026   
-1497.682616   0.009419   -229.965818   
-1372.880766   -0.007486   -229.972582   
-1248.068135   0.006135   -229.969952   
-1123.288105   -0.004424   -229.983790   
-1057.830013   10.267856   -229.933858   
-3.253833   -10.205746   -246.105985   
-0.089438   0.091813   -245.837861   
-0.010121   0.017245   -245.560356   
0.008387   0.011029   -245.578450   
-0.002357   -0.007591   -245.565556   
0.001831   0.004299   -245.575908   
-0.002672   -0.003321   -245.566989   
0.023143   0.006084   -245.557584   
3.135706   10.298619   -245.595618   
1931.020735   -12.386445   -230.251940   
1872.193647   0.003644   -230.201690   
1747.318015   0.127573   -230.026165   
1622.476837   -0.070981   -229.936002   
1497.697980   0.043177   -229.991012   
1372.870533   -0.027061   -229.956603   
1248.077760   0.017956   -229.979887   
1123.241255   -0.018492   -229.976972   
1063.899007   10.258945   -229.946866   
3866.886203   -4.759915   -183.673289   
3743.593761   -1.089810   -182.976993   
3494.576630   -0.231906   -183.106630   
3245.030688   0.177241   -183.227981   
2995.342868   -0.102463   -183.129186   
2745.773289   0.057737   -183.190302   
2496.131353   -0.034795   -183.153042   
2246.553910   0.017172   -183.167583   
2124.861299   10.309290   -183.200951   
5800.210468   -19.368396   -105.624544   
5618.424419   3.106318   -106.517195   
5241.937526   0.320219   -105.151390   
4867.405873   -0.265720   -105.136751   
4493.097679   0.148239   -105.180810   
4118.612683   -0.080360   -105.151609   
3744.228573   0.046496   -105.171178   
3369.764144   -0.023667   -105.172019   
3185.610370   10.258817   -105.136393   
7580.726729   308.340197   -51.568307   
7577.717932   298.737684   -47.707602   
7075.388359   287.738769   -51.389968   
6570.365527   267.782180   -51.090163   
6064.701924   246.672865   -51.192715   
5559.462101   226.408268   -51.143978   
5053.966114   205.662478   -51.165487   
4548.657483   185.171521   -51.145660   
4548.578369   185.116565   -51.157173   
</DataArray> 
<DataArray  type="Float64"  Name="U" NumberOfComponents="3" format="ascii"> 
  0.00000035    -0.00011922    -0.00011922   
 -0.00077334    -0.00054783    -0.00054783   
 -0.00149724    -0.00172567    -0.00172567   
 -0.00217119    -0.00360245    -0.00360245   
 -0.00279523    -0.00612822    -0.00612822   
 -0.00336934    -0.00925307    -0.00925307   
 -0.00389353    -0.01292706    -0.01292706   
 -0.00436780    -0.01710029    -0.01710029   
 -0.00479214    -0.02172282    -0.02172282   
  0.00000671    -0.00006637    -0.00006637   
 -0.00057374    -0.00049869    -0.00049869   
 -0.00111666    -0.00167981    -0.00167981   
 -0.00162212    -0.00355986    -0.00355986   
 -0.00209015    -0.00608891    -0.00608891   
 -0.00252073    -0.00921703    -0.00921703   
 -0.00291388    -0.01289430    -0.01289430   
 -0.00326958    -0.01707080    -0.01707080   
 -0.00358784    -0.02169661    -0.02169661   
  0.00000744    -0.00002894    -0.00002894   
 -0.00037952    -0.00046359    -0.00046359   
 -0.00074145    -0.00164705    -0.00164705   
 -0.00107843    -0.00352944    -0.00352944   
 -0.00139045    -0.00606082    -0.00606082   
 -0.00167751    -0.00919129    -0.00919129   
 -0.00193960    -0.01287090    -0.01287090   
 -0.00217674    -0.01704974    -0.01704974   
 -0.00238891    -0.02167789    -0.02167789   
  0.00000462    -0.00000643    -0.00000643   
 -0.00018887    -0.00044252    -0.00044252   
 -0.00036984    -0.00162739    -0.00162739   
 -0.00053833    -0.00351119    -0.00351119   
 -0.00069434    -0.00604398    -0.00604398   
 -0.00083787    -0.00917584    -0.00917584   
 -0.00096892    -0.01285686    -0.01285686   
 -0.00108748    -0.01703710    -0.01703710   
 -0.00119357    -0.02166665    -0.02166665   
  0.00000000     0.00000107     0.00000107   
 -0.00000002    -0.00043550    -0.00043550   
 -0.00000002    -0.00162084    -0.00162084   
 -0.00000002    -0.00350510    -0.00350510   
 -0.00000002    -0.00603836    -0.00603836   
 -0.00000002    -0.00917069    -0.00917069   
 -0.00000002    -0.01285218    -0.01285218   
 -0.00000002    -0.01703289    -0.01703289   
 -0.00000002    -0.02166291    -0.02166291   
 -0.00000463    -0.00000642    -0.00000642   
  0.00018882    -0.00044251    -0.00044251   
  0.00036980    -0.00162739    -0.00162739   
  0.00053828    -0.00351119    -0.00351119   
  0.00069430    -0.00604398    -0.00604398   
  0.00083782    -0.00917584    -0.00917584   
  0.00096887    -0.01285686    -0.01285686   
  0.00108744    -0.01703710    -0.01703710   
  0.00119352    -0.02166665    -0.02166665   
 -0.00000742    -0.00002898    -0.00002898   
  0.00037947    -0.00046358    -0.00046358   
  0.00074140    -0.00164704    -0.00164704   
  0.00107839    -0.00352944    -0.00352944   
  0.00139040    -0.00606082    -0.00606082   
  0.00167746    -0.00919129    -0.00919129   
  0.00193956    -0.01287090    -0.01287090   
  0.00217669    -0.01704974    -0.01704974   
  0.00238886    -0.02167789    -0.02167789   
 -0.00000678    -0.00006616    -0.00006616   
  0.00057370    -0.00049868    -0.00049868   
  0.00111661    -0.00167981    -0.00167981   
  0.00162208    -0.00355986    -0.00355986   
  0.00209011    -0.00608891    -0.00608891   
  0.00252069    -0.00921703    -0.00921703   
  0.00291383    -0.01289430    -0.01289430   
  0.00326953    -0.01707080    -0.01707080   
  0.00358779    -0.02169661    -0.02169661   
 -0.00000044    -0.00011904    -0.00011904   
  0.00077331    -0.00054782    -0.00054782   
  0.00149720    -0.00172567    -0.00172567   
  0.00217115    -0.00360246    -0.00360246   
  0.00279519    -0.00612822    -0.00612822   
  0.00336930    -0.00925307    -0.00925307   
  0.00389349    -0.01292706    -0.01292706   
  0.00436776    -0.01710029    -0.01710029   
  0.00479210    -0.02172282    -0.02172282   
</DataArray> 
</PointData> 
</Piece> 
</UnstructuredGrid> 
</VTKFile> 
