<VTKFile type="UnstructuredGrid"  version="0.1"   > 
<UnstructuredGrid> 
<Piece  NumberOfPoints="  2145" NumberOfCells=" 1936"> 
<Points> 
<DataArray  type="Float64"  NumberOfComponents="3"  format="ascii" > 
0.000000 0.000000 0.0 
0.156250 0.000000 0.0 
0.312500 0.000000 0.0 
0.468750 0.000000 0.0 
0.625000 0.000000 0.0 
0.781250 0.000000 0.0 
0.937500 0.000000 0.0 
1.093750 0.000000 0.0 
1.250000 0.000000 0.0 
1.406250 0.000000 0.0 
1.562500 0.000000 0.0 
1.718750 0.000000 0.0 
1.875000 0.000000 0.0 
2.031250 0.000000 0.0 
2.187500 0.000000 0.0 
2.343750 0.000000 0.0 
2.500000 0.000000 0.0 
2.656250 0.000000 0.0 
2.812500 0.000000 0.0 
2.968750 0.000000 0.0 
3.125000 0.000000 0.0 
3.281250 0.000000 0.0 
3.437500 0.000000 0.0 
3.593750 0.000000 0.0 
3.750000 0.000000 0.0 
3.906250 0.000000 0.0 
4.062500 0.000000 0.0 
4.218750 0.000000 0.0 
4.375000 0.000000 0.0 
4.531250 0.000000 0.0 
4.687500 0.000000 0.0 
4.843750 0.000000 0.0 
5.000000 0.000000 0.0 
0.000000 0.156250 0.0 
0.156250 0.156250 0.0 
0.312500 0.156250 0.0 
0.468750 0.156250 0.0 
0.625000 0.156250 0.0 
0.781250 0.156250 0.0 
0.937500 0.156250 0.0 
1.093750 0.156250 0.0 
1.250000 0.156250 0.0 
1.406250 0.156250 0.0 
1.562500 0.156250 0.0 
1.718750 0.156250 0.0 
1.875000 0.156250 0.0 
2.031250 0.156250 0.0 
2.187500 0.156250 0.0 
2.343750 0.156250 0.0 
2.500000 0.156250 0.0 
2.656250 0.156250 0.0 
2.812500 0.156250 0.0 
2.968750 0.156250 0.0 
3.125000 0.156250 0.0 
3.281250 0.156250 0.0 
3.437500 0.156250 0.0 
3.593750 0.156250 0.0 
3.750000 0.156250 0.0 
3.906250 0.156250 0.0 
4.062500 0.156250 0.0 
4.218750 0.156250 0.0 
4.375000 0.156250 0.0 
4.531250 0.156250 0.0 
4.687500 0.156250 0.0 
4.843750 0.156250 0.0 
5.000000 0.156250 0.0 
0.000000 0.312500 0.0 
0.156250 0.312500 0.0 
0.312500 0.312500 0.0 
0.468750 0.312500 0.0 
0.625000 0.312500 0.0 
0.781250 0.312500 0.0 
0.937500 0.312500 0.0 
1.093750 0.312500 0.0 
1.250000 0.312500 0.0 
1.406250 0.312500 0.0 
1.562500 0.312500 0.0 
1.718750 0.312500 0.0 
1.875000 0.312500 0.0 
2.031250 0.312500 0.0 
2.187500 0.312500 0.0 
2.343750 0.312500 0.0 
2.500000 0.312500 0.0 
2.656250 0.312500 0.0 
2.812500 0.312500 0.0 
2.968750 0.312500 0.0 
3.125000 0.312500 0.0 
3.281250 0.312500 0.0 
3.437500 0.312500 0.0 
3.593750 0.312500 0.0 
3.750000 0.312500 0.0 
3.906250 0.312500 0.0 
4.062500 0.312500 0.0 
4.218750 0.312500 0.0 
4.375000 0.312500 0.0 
4.531250 0.312500 0.0 
4.687500 0.312500 0.0 
4.843750 0.312500 0.0 
5.000000 0.312500 0.0 
0.000000 0.468750 0.0 
0.156250 0.468750 0.0 
0.312500 0.468750 0.0 
0.468750 0.468750 0.0 
0.625000 0.468750 0.0 
0.781250 0.468750 0.0 
0.937500 0.468750 0.0 
1.093750 0.468750 0.0 
1.250000 0.468750 0.0 
1.406250 0.468750 0.0 
1.562500 0.468750 0.0 
1.718750 0.468750 0.0 
1.875000 0.468750 0.0 
2.031250 0.468750 0.0 
2.187500 0.468750 0.0 
2.343750 0.468750 0.0 
2.500000 0.468750 0.0 
2.656250 0.468750 0.0 
2.812500 0.468750 0.0 
2.968750 0.468750 0.0 
3.125000 0.468750 0.0 
3.281250 0.468750 0.0 
3.437500 0.468750 0.0 
3.593750 0.468750 0.0 
3.750000 0.468750 0.0 
3.906250 0.468750 0.0 
4.062500 0.468750 0.0 
4.218750 0.468750 0.0 
4.375000 0.468750 0.0 
4.531250 0.468750 0.0 
4.687500 0.468750 0.0 
4.843750 0.468750 0.0 
5.000000 0.468750 0.0 
0.000000 0.625000 0.0 
0.156250 0.625000 0.0 
0.312500 0.625000 0.0 
0.468750 0.625000 0.0 
0.625000 0.625000 0.0 
0.781250 0.625000 0.0 
0.937500 0.625000 0.0 
1.093750 0.625000 0.0 
1.250000 0.625000 0.0 
1.406250 0.625000 0.0 
1.562500 0.625000 0.0 
1.718750 0.625000 0.0 
1.875000 0.625000 0.0 
2.031250 0.625000 0.0 
2.187500 0.625000 0.0 
2.343750 0.625000 0.0 
2.500000 0.625000 0.0 
2.656250 0.625000 0.0 
2.812500 0.625000 0.0 
2.968750 0.625000 0.0 
3.125000 0.625000 0.0 
3.281250 0.625000 0.0 
3.437500 0.625000 0.0 
3.593750 0.625000 0.0 
3.750000 0.625000 0.0 
3.906250 0.625000 0.0 
4.062500 0.625000 0.0 
4.218750 0.625000 0.0 
4.375000 0.625000 0.0 
4.531250 0.625000 0.0 
4.687500 0.625000 0.0 
4.843750 0.625000 0.0 
5.000000 0.625000 0.0 
0.000000 0.781250 0.0 
0.156250 0.781250 0.0 
0.312500 0.781250 0.0 
0.468750 0.781250 0.0 
0.625000 0.781250 0.0 
0.781250 0.781250 0.0 
0.937500 0.781250 0.0 
1.093750 0.781250 0.0 
1.250000 0.781250 0.0 
1.406250 0.781250 0.0 
1.562500 0.781250 0.0 
1.718750 0.781250 0.0 
1.875000 0.781250 0.0 
2.031250 0.781250 0.0 
2.187500 0.781250 0.0 
2.343750 0.781250 0.0 
2.500000 0.781250 0.0 
2.656250 0.781250 0.0 
2.812500 0.781250 0.0 
2.968750 0.781250 0.0 
3.125000 0.781250 0.0 
3.281250 0.781250 0.0 
3.437500 0.781250 0.0 
3.593750 0.781250 0.0 
3.750000 0.781250 0.0 
3.906250 0.781250 0.0 
4.062500 0.781250 0.0 
4.218750 0.781250 0.0 
4.375000 0.781250 0.0 
4.531250 0.781250 0.0 
4.687500 0.781250 0.0 
4.843750 0.781250 0.0 
5.000000 0.781250 0.0 
0.000000 0.937500 0.0 
0.156250 0.937500 0.0 
0.312500 0.937500 0.0 
0.468750 0.937500 0.0 
0.625000 0.937500 0.0 
0.781250 0.937500 0.0 
0.937500 0.937500 0.0 
1.093750 0.937500 0.0 
1.250000 0.937500 0.0 
1.406250 0.937500 0.0 
1.562500 0.937500 0.0 
1.718750 0.937500 0.0 
1.875000 0.937500 0.0 
2.031250 0.937500 0.0 
2.187500 0.937500 0.0 
2.343750 0.937500 0.0 
2.500000 0.937500 0.0 
2.656250 0.937500 0.0 
2.812500 0.937500 0.0 
2.968750 0.937500 0.0 
3.125000 0.937500 0.0 
3.281250 0.937500 0.0 
3.437500 0.937500 0.0 
3.593750 0.937500 0.0 
3.750000 0.937500 0.0 
3.906250 0.937500 0.0 
4.062500 0.937500 0.0 
4.218750 0.937500 0.0 
4.375000 0.937500 0.0 
4.531250 0.937500 0.0 
4.687500 0.937500 0.0 
4.843750 0.937500 0.0 
5.000000 0.937500 0.0 
0.000000 1.093750 0.0 
0.156250 1.093750 0.0 
0.312500 1.093750 0.0 
0.468750 1.093750 0.0 
0.625000 1.093750 0.0 
0.781250 1.093750 0.0 
0.937500 1.093750 0.0 
1.093750 1.093750 0.0 
1.250000 1.093750 0.0 
1.406250 1.093750 0.0 
1.562500 1.093750 0.0 
1.718750 1.093750 0.0 
1.875000 1.093750 0.0 
2.031250 1.093750 0.0 
2.187500 1.093750 0.0 
2.343750 1.093750 0.0 
2.500000 1.093750 0.0 
2.656250 1.093750 0.0 
2.812500 1.093750 0.0 
2.968750 1.093750 0.0 
3.125000 1.093750 0.0 
3.281250 1.093750 0.0 
3.437500 1.093750 0.0 
3.593750 1.093750 0.0 
3.750000 1.093750 0.0 
3.906250 1.093750 0.0 
4.062500 1.093750 0.0 
4.218750 1.093750 0.0 
4.375000 1.093750 0.0 
4.531250 1.093750 0.0 
4.687500 1.093750 0.0 
4.843750 1.093750 0.0 
5.000000 1.093750 0.0 
0.000000 1.250000 0.0 
0.156250 1.250000 0.0 
0.312500 1.250000 0.0 
0.468750 1.250000 0.0 
0.625000 1.250000 0.0 
0.781250 1.250000 0.0 
0.937500 1.250000 0.0 
1.093750 1.250000 0.0 
1.250000 1.250000 0.0 
1.406250 1.250000 0.0 
1.562500 1.250000 0.0 
1.718750 1.250000 0.0 
1.875000 1.250000 0.0 
2.031250 1.250000 0.0 
2.187500 1.250000 0.0 
2.343750 1.250000 0.0 
2.500000 1.250000 0.0 
2.656250 1.250000 0.0 
2.812500 1.250000 0.0 
2.968750 1.250000 0.0 
3.125000 1.250000 0.0 
3.281250 1.250000 0.0 
3.437500 1.250000 0.0 
3.593750 1.250000 0.0 
3.750000 1.250000 0.0 
3.906250 1.250000 0.0 
4.062500 1.250000 0.0 
4.218750 1.250000 0.0 
4.375000 1.250000 0.0 
4.531250 1.250000 0.0 
4.687500 1.250000 0.0 
4.843750 1.250000 0.0 
5.000000 1.250000 0.0 
0.000000 1.406250 0.0 
0.156250 1.406250 0.0 
0.312500 1.406250 0.0 
0.468750 1.406250 0.0 
0.625000 1.406250 0.0 
0.781250 1.406250 0.0 
0.937500 1.406250 0.0 
1.093750 1.406250 0.0 
1.250000 1.406250 0.0 
1.406250 1.406250 0.0 
1.562500 1.406250 0.0 
1.718750 1.406250 0.0 
1.875000 1.406250 0.0 
2.031250 1.406250 0.0 
2.187500 1.406250 0.0 
2.343750 1.406250 0.0 
2.500000 1.406250 0.0 
2.656250 1.406250 0.0 
2.812500 1.406250 0.0 
2.968750 1.406250 0.0 
3.125000 1.406250 0.0 
3.281250 1.406250 0.0 
3.437500 1.406250 0.0 
3.593750 1.406250 0.0 
3.750000 1.406250 0.0 
3.906250 1.406250 0.0 
4.062500 1.406250 0.0 
4.218750 1.406250 0.0 
4.375000 1.406250 0.0 
4.531250 1.406250 0.0 
4.687500 1.406250 0.0 
4.843750 1.406250 0.0 
5.000000 1.406250 0.0 
0.000000 1.562500 0.0 
0.156250 1.562500 0.0 
0.312500 1.562500 0.0 
0.468750 1.562500 0.0 
0.625000 1.562500 0.0 
0.781250 1.562500 0.0 
0.937500 1.562500 0.0 
1.093750 1.562500 0.0 
1.250000 1.562500 0.0 
1.406250 1.562500 0.0 
1.562500 1.562500 0.0 
1.718750 1.562500 0.0 
1.875000 1.562500 0.0 
2.031250 1.562500 0.0 
2.187500 1.562500 0.0 
2.343750 1.562500 0.0 
2.500000 1.562500 0.0 
2.656250 1.562500 0.0 
2.812500 1.562500 0.0 
2.968750 1.562500 0.0 
3.125000 1.562500 0.0 
3.281250 1.562500 0.0 
3.437500 1.562500 0.0 
3.593750 1.562500 0.0 
3.750000 1.562500 0.0 
3.906250 1.562500 0.0 
4.062500 1.562500 0.0 
4.218750 1.562500 0.0 
4.375000 1.562500 0.0 
4.531250 1.562500 0.0 
4.687500 1.562500 0.0 
4.843750 1.562500 0.0 
5.000000 1.562500 0.0 
0.000000 1.718750 0.0 
0.156250 1.718750 0.0 
0.312500 1.718750 0.0 
0.468750 1.718750 0.0 
0.625000 1.718750 0.0 
0.781250 1.718750 0.0 
0.937500 1.718750 0.0 
1.093750 1.718750 0.0 
1.250000 1.718750 0.0 
1.406250 1.718750 0.0 
1.562500 1.718750 0.0 
1.718750 1.718750 0.0 
1.875000 1.718750 0.0 
2.031250 1.718750 0.0 
2.187500 1.718750 0.0 
2.343750 1.718750 0.0 
2.500000 1.718750 0.0 
2.656250 1.718750 0.0 
2.812500 1.718750 0.0 
2.968750 1.718750 0.0 
3.125000 1.718750 0.0 
3.281250 1.718750 0.0 
3.437500 1.718750 0.0 
3.593750 1.718750 0.0 
3.750000 1.718750 0.0 
3.906250 1.718750 0.0 
4.062500 1.718750 0.0 
4.218750 1.718750 0.0 
4.375000 1.718750 0.0 
4.531250 1.718750 0.0 
4.687500 1.718750 0.0 
4.843750 1.718750 0.0 
5.000000 1.718750 0.0 
0.000000 1.875000 0.0 
0.156250 1.875000 0.0 
0.312500 1.875000 0.0 
0.468750 1.875000 0.0 
0.625000 1.875000 0.0 
0.781250 1.875000 0.0 
0.937500 1.875000 0.0 
1.093750 1.875000 0.0 
1.250000 1.875000 0.0 
1.406250 1.875000 0.0 
1.562500 1.875000 0.0 
1.718750 1.875000 0.0 
1.875000 1.875000 0.0 
2.031250 1.875000 0.0 
2.187500 1.875000 0.0 
2.343750 1.875000 0.0 
2.500000 1.875000 0.0 
2.656250 1.875000 0.0 
2.812500 1.875000 0.0 
2.968750 1.875000 0.0 
3.125000 1.875000 0.0 
3.281250 1.875000 0.0 
3.437500 1.875000 0.0 
3.593750 1.875000 0.0 
3.750000 1.875000 0.0 
3.906250 1.875000 0.0 
4.062500 1.875000 0.0 
4.218750 1.875000 0.0 
4.375000 1.875000 0.0 
[...]
<PointData  Vectors="sigma"> 
<DataArray  type="Float64"  Name="sigma" NumberOfComponents="3" format="ascii"> 
5.135772   17.119239   3.972979   
3.693601   12.312005   2.599858   
3.379778   11.265925   1.978871   
3.212388   10.707961   1.586358   
3.112903   10.376343   1.293256   
3.040486   10.134955   1.059153   
2.982111   9.940369   0.865733   
2.931820   9.772734   0.703487   
2.887099   9.623664   0.566583   
2.846965   9.489885   0.450946   
2.811211   9.370703   0.353376   
2.780012   9.266706   0.271098   
2.753720   9.179067   0.201532   
2.732738   9.109128   0.142164   
2.717445   9.058149   0.090482   
2.708139   9.027131   0.043949   
2.705016   9.016719   -0.000000   
2.708139   9.027131   -0.043949   
2.717445   9.058149   -0.090482   
2.732739   9.109129   -0.142164   
2.753720   9.179067   -0.201532   
2.780012   9.266707   -0.271098   
2.811211   9.370704   -0.353376   
2.846966   9.489886   -0.450946   
2.887099   9.623665   -0.566582   
2.931820   9.772735   -0.703487   
2.982111   9.940370   -0.865732   
3.040487   10.134955   -1.059153   
3.112903   10.376343   -1.293255   
3.212388   10.707961   -1.586358   
3.379777   11.265925   -1.978871   
3.693601   12.312003   -2.599858   
5.135771   17.119236   -3.972979   
-0.111223   11.529644   0.780519   
1.268991   12.871106   1.693908   
2.063109   11.268860   1.768343   
2.332846   10.747153   1.478534   
2.434193   10.398531   1.231517   
2.489959   10.152462   1.016428   
2.523902   9.954225   0.833242   
2.546441   9.784452   0.677137   
2.561896   9.633997   0.544472   
2.572627   9.499318   0.432139   
2.580058   9.379537   0.337423   
2.585144   9.275137   0.257808   
2.588553   9.187226   0.190849   
2.590767   9.117107   0.134099   
2.592125   9.066012   0.085072   
2.592853   9.034931   0.041233   
2.593082   9.024498   -0.000000   
2.592853   9.034931   -0.041234   
2.592125   9.066012   -0.085073   
2.590767   9.117107   -0.134099   
2.588553   9.187226   -0.190849   
2.585144   9.275138   -0.257808   
2.580059   9.379538   -0.337423   
2.572627   9.499319   -0.432139   
2.561896   9.633998   -0.544472   
2.546441   9.784453   -0.677136   
2.523902   9.954226   -0.833241   
2.489959   10.152463   -1.016427   
2.434193   10.398531   -1.231516   
2.332846   10.747153   -1.478533   
2.063109   11.268859   -1.768343   
1.268991   12.871104   -1.693908   
-0.111223   11.529642   -0.780519   
0.227270   11.493960   0.504367   
0.448693   11.528866   0.754169   
1.040539   11.449131   1.258778   
1.522468   10.923934   1.247309   
1.808618   10.594373   1.094487   
1.985561   10.329659   0.927736   
2.106770   10.110739   0.770633   
2.195531   9.920019   0.630643   
2.263776   9.750152   0.508780   
2.317788   9.597936   0.404240   
2.361117   9.462663   0.315493   
2.395843   9.344913   0.240693   
2.423212   9.245888   0.177807   
2.443971   9.166989   0.124651   
2.458562   9.109543   0.078917   
2.467234   9.074617   0.038196   
2.470113   9.062896   -0.000000   
2.467235   9.074617   -0.038196   
2.458562   9.109543   -0.078918   
2.443971   9.166989   -0.124651   
2.423212   9.245888   -0.177807   
2.395844   9.344914   -0.240694   
2.361118   9.462664   -0.315493   
2.317789   9.597937   -0.404240   
2.263776   9.750153   -0.508780   
2.195531   9.920020   -0.630643   
2.106770   10.110739   -0.770632   
1.985562   10.329660   -0.927735   
1.808618   10.594373   -1.094487   
1.522468   10.923934   -1.247309   
1.040539   11.449131   -1.258778   
0.448693   11.528864   -0.754169   
0.227270   11.493958   -0.504367   
0.084440   10.929820   0.217442   
0.204182   11.021751   0.421008   
0.560406   11.174027   0.736365   
0.958170   10.991708   0.879491   
1.289955   10.714565   0.850994   
1.536220   10.466065   0.755539   
1.720186   10.241199   0.642565   
1.862223   10.038100   0.531211   
1.975093   9.853653   0.429355   
2.066572   9.686806   0.339804   
2.141318   9.537820   0.263076   
2.202115   9.407820   0.198523   
2.250606   9.298355   0.144833   
2.287733   9.211080   0.100270   
2.314010   9.147513   0.062798   
2.329700   9.108857   0.030170   
2.334919   9.095883   -0.000000   
2.329700   9.108857   -0.030171   
2.314011   9.147513   -0.062799   
2.287734   9.211080   -0.100270   
2.250607   9.298355   -0.144833   
2.202116   9.407820   -0.198523   
2.141319   9.537820   -0.263076   
2.066573   9.686806   -0.339804   
1.975094   9.853653   -0.429355   
1.862224   10.038101   -0.531210   
1.720187   10.241200   -0.642565   
1.536220   10.466066   -0.755539   
1.289955   10.714566   -0.850993   
0.958170   10.991708   -0.879490   
0.560406   11.174027   -0.736365   
0.204182   11.021750   -0.421008   
0.084440   10.929819   -0.217442   
0.057141   10.626652   0.102107   
0.115658   10.745955   0.203576   
0.334066   10.964515   0.405260   
0.626372   10.928291   0.535311   
0.920345   10.761038   0.570738   
1.177417   10.549932   0.536268   
1.390190   10.336417   0.468928   
1.564977   10.130942   0.391093   
1.709462   9.938127   0.314461   
1.829617   9.760427   0.244831   
1.929534   9.600024   0.184724   
2.011824   9.459136   0.134802   
2.078053   9.340009   0.094595   
2.129093   9.244773   0.062895   
2.165384   9.175286   0.037982   
2.187117   9.132986   0.017784   
2.194356   9.118782   -0.000001   
2.187117   9.132986   -0.017785   
2.165385   9.175286   -0.037983   
2.129095   9.244773   -0.062896   
2.078055   9.340008   -0.094596   
2.011826   9.459135   -0.134802   
1.929536   9.600024   -0.184723   
1.829618   9.760428   -0.244830   
1.709463   9.938128   -0.314461   
1.564978   10.130943   -0.391092   
1.390191   10.336418   -0.468927   
1.177418   10.549932   -0.536267   
0.920345   10.761038   -0.570738   
0.626373   10.928291   -0.535311   
0.334066   10.964514   -0.405260   
0.115658   10.745953   -0.203576   
0.057141   10.626650   -0.102107   
0.036561   10.489720   0.032092   
0.074056   10.607674   0.075950   
0.219251   10.824805   0.176311   
0.432997   10.854714   0.265599   
0.674614   10.756428   0.308952   
0.911051   10.590466   0.306710   
1.125503   10.396518   0.273720   
1.313317   10.196236   0.226040   
1.475498   10.000345   0.174851   
1.614482   9.815309   0.126927   
1.732508   9.645682   0.085963   
1.831174   9.495191   0.053592   
1.911442   9.367085   0.030051   
1.973782   9.264201   0.014598   
2.018346   9.188903   0.005788   
2.045123   9.142978   0.001678   
2.054058   9.127543   -0.000001   
2.045124   9.142978   -0.001680   
2.018347   9.188903   -0.005790   
1.973784   9.264200   -0.014599   
1.911445   9.367084   -0.030052   
1.831177   9.495190   -0.053592   
1.732510   9.645682   -0.085963   
1.614484   9.815309   -0.126926   
1.475500   10.000346   -0.174850   
1.313319   10.196236   -0.226039   
1.125504   10.396519   -0.273719   
0.911052   10.590467   -0.306708   
0.674615   10.756429   -0.308951   
0.432997   10.854714   -0.265599   
0.219251   10.824805   -0.176310   
0.074056   10.607673   -0.075950   
0.036561   10.489718   -0.032092   
0.026841   10.464749   -0.011932   
0.052349   10.565558   -0.010293   
0.155973   10.754315   0.014711   
0.317025   10.802191   0.055718   
0.512754   10.739675   0.084213   
0.719702   10.604729   0.090058   
0.921065   10.429671   0.076251   
1.107747   10.236830   0.050698   
1.276013   10.040586   0.021306   
1.424850   9.850351   -0.006000   
1.554229   9.672908   -0.027405   
1.664273   9.513585   -0.040873   
1.754952   9.376812   -0.045763   
1.826041   9.266312   -0.042531   
1.877195   9.185106   -0.032474   
1.908062   9.135450   -0.017516   
1.918383   9.118740   -0.000001   
1.908063   9.135449   0.017513   
1.877197   9.185105   0.032471   
1.826044   9.266310   0.042529   
1.754956   9.376811   0.045762   
1.664277   9.513584   0.040872   
1.554233   9.672907   0.027406   
1.424853   9.850351   0.006001   
1.276016   10.040586   -0.021304   
1.107750   10.236830   -0.050696   
0.921067   10.429672   -0.076249   
0.719703   10.604730   -0.090056   
0.512755   10.739676   -0.084211   
0.317026   10.802191   -0.055717   
0.155973   10.754315   -0.014711   
0.052349   10.565557   0.010293   
0.026841   10.464747   0.011932   
0.021064   10.515909   -0.043265   
0.039820   10.593573   -0.072376   
0.118479   10.742102   -0.105916   
0.244311   10.782031   -0.109291   
0.404261   10.729962   -0.104819   
0.582496   10.610101   -0.104627   
0.765233   10.446445   -0.111841   
0.942739   10.258738   -0.124145   
1.109057   10.061793   -0.137248   
1.260788   9.866570   -0.146950   
1.395918   9.681452   -0.150063   
1.513038   9.513195   -0.144655   
1.610954   9.367430   -0.130022   
1.688555   9.248869   -0.106561   
1.744832   9.161323   -0.075606   
1.778961   9.107625   -0.039226   
1.790400   9.089528   -0.000002   
1.778962   9.107625   0.039222   
1.744834   9.161322   0.075603   
1.688559   9.248867   0.106559   
1.610959   9.367427   0.130020   
1.513043   9.513193   0.144654   
1.395923   9.681451   0.150064   
1.260793   9.866569   0.146951   
1.109061   10.061793   0.137250   
0.942743   10.258739   0.124148   
0.765236   10.446446   0.111844   
0.582498   10.610103   0.104630   
0.404262   10.729964   0.104820   
0.244312   10.782032   0.109292   
0.118479   10.742102   0.105917   
0.039820   10.593572   0.072376   
0.021064   10.515908   0.043265   
0.017591   10.623164   -0.067169   
0.031973   10.675199   -0.120136   
0.094572   10.778065   -0.200002   
0.196124   10.795199   -0.242115   
0.328783   10.736496   -0.263641   
0.481993   10.617756   -0.276182   
0.645291   10.456447   -0.285287   
0.810002   10.268742   -0.291930   
0.969653   10.068332   -0.294511   
1.119602   9.866448   -0.290543   
1.256422   9.672382   -0.277721   
1.377372   9.494004   -0.254508   
1.480093   9.338079   -0.220384   
1.562496   9.210370   -0.175905   
1.622785   9.115588   -0.122637   
1.659560   9.057256   -0.062994   
1.671922   9.037563   -0.000003   
1.659562   9.057254   0.062988   
1.622789   9.115585   0.122632   
1.562501   9.210367   0.175901   
1.480099   9.338075   0.220382   
1.377379   9.494000   0.254507   
1.256429   9.672379   0.277721   
1.119609   9.866445   0.290544   
0.969659   10.068331   0.294514   
0.810007   10.268742   0.291933   
0.645296   10.456448   0.285290   
0.481996   10.617758   0.276185   
0.328785   10.736498   0.263644   
0.196125   10.795201   0.242117   
0.094572   10.778066   0.200004   
0.031973   10.675199   0.120137   
0.017591   10.623163   0.067169   
0.015308   10.774219   -0.086421   
0.026532   10.799351   -0.158533   
0.077919   10.853744   -0.275994   
0.161739   10.839339   -0.351231   
0.273087   10.762631   -0.397868   
0.404989   10.634242   -0.426240   
0.549869   10.466783   -0.442556   
0.700665   10.273040   -0.449355   
0.851324   10.064948   -0.446654   
0.996794   9.853271   -0.433176   
1.132783   9.647665   -0.407369   
1.255496   9.456840   -0.368122   
1.361490   9.288625   -0.315203   
1.447657   9.149899   -0.249473   
1.511324   9.046400   -0.172919   
1.550412   8.982479   -0.088521   
1.563594   8.960862   -0.000004   
1.550415   8.982478   0.088514   
1.511329   9.046396   0.172912   
1.447664   9.149894   0.249468   
1.361499   9.288620   0.315199   
1.255506   9.456835   0.368120   
1.132792   9.647661   0.407369   
0.996803   9.853267   0.433178   
0.851332   10.064946   0.446657   
0.700672   10.273039   0.449359   
0.549875   10.466784   0.442560   
0.404993   10.634244   0.426245   
0.273090   10.762633   0.397872   
0.161741   10.839342   0.351234   
0.077920   10.853746   0.275996   
0.026532   10.799351   0.158533   
0.015308   10.774219   0.086421   
0.013640   10.960859   -0.102372   
0.022224   10.958150   -0.190166   
0.064882   10.962314   -0.338544   
0.134588   10.911070   -0.441909   
0.228304   10.808946   -0.511664   
0.341627   10.663094   -0.556935   
0.469396   10.482447   -0.583747   
0.606267   10.276814   -0.595111   
0.747052   10.056241   -0.591707   
0.886801   9.830675   -0.572823   
1.020759   9.609838   -0.537281   
1.144309   9.403128   -0.484215   
1.252992   9.219454   -0.413640   
1.342640   9.066941   -0.326790   
1.409603   8.952547   -0.226223   
1.451011   8.881641   -0.115723   
1.465026   8.857616   -0.000006   
1.451014   8.881638   0.115713   
1.409609   8.952543   0.226213   
1.342649   9.066934   0.326782   
1.253003   9.219446   0.413635   
1.144322   9.403121   0.484213   
1.020772   9.609831   0.537281   
0.886813   9.830670   0.572826   
0.747063   10.056237   0.591712   
0.606277   10.276813   0.595117   
0.469403   10.482447   0.583754   
0.341633   10.663096   0.556941   
0.228308   10.808949   0.511669   
0.134590   10.911074   0.441913   
0.064883   10.962317   0.338547   
0.022224   10.958152   0.190168   
0.013640   10.960859   0.102373   
0.012205   11.176821   -0.115607   
0.018231   11.145416   -0.216205   
0.053119   11.098089   -0.389925   
0.110273   11.006886   -0.516954   
0.188111   10.874781   -0.607531   
0.284306   10.706199   -0.669841   
0.395809   10.507031   -0.709360   
0.518988   10.284427   -0.728857   
0.649723   10.046563   -0.728902   
0.783457   9.802461   -0.708675   
0.915215   9.561807   -0.666865   
1.039687   9.334705   -0.602519   
1.151405   9.131290   -0.515723   
1.245047   8.961193   -0.408062   
1.315835   8.832895   -0.282796   
1.359957   8.753062   -0.144760   
1.374950   8.725960   -0.000008   
1.359961   8.753058   0.144745   
1.315843   8.832888   0.282783   
1.245059   8.961183   0.408052   
1.151419   9.131279   0.515716   
1.039704   9.334694   0.602516   
0.915232   9.561797   0.666866   
0.783473   9.802453   0.708679   
0.649738   10.046558   0.728908   
0.519000   10.284424   0.728865   
0.395819   10.507032   0.709369   
0.284313   10.706202   0.669850   
0.188116   10.874786   0.607538   
0.110276   11.006892   0.516960   
0.053121   11.098094   0.389929   
0.018231   11.145419   0.216207   
0.012205   11.176823   0.115608   
0.010716   11.416513   -0.126207   
0.013952   11.355655   -0.236875   
0.040926   11.256016   -0.430747   
0.085529   11.123401   -0.577283   
0.147621   10.959025   -0.686375   
0.226818   10.764692   -0.765566   
0.322090   10.543430   -0.819605   
0.431535   10.299828   -0.850516   
0.552238   10.040206   -0.858103   
0.680196   9.772635   -0.840767   
0.810341   9.506816   -0.796471   
0.936693   9.253730   -0.723711   
1.052683   9.025062   -0.622356   
1.151652   8.832378   -0.494240   
1.227456   8.686158   -0.343422   
1.275115   8.594790   -0.176073   
1.291381   8.563705   -0.000010   
1.275121   8.594785   0.176054   
1.227467   8.686148   0.343404   
1.151668   8.832366   0.494226   
1.052703   9.025047   0.622347   
0.936714   9.253715   0.723707   
0.810363   9.506802   0.796472   
0.680217   9.772624   0.840772   
0.552257   10.040198   0.858111   
0.431552   10.299824   0.850526   
0.322103   10.543430   0.819617   
0.226828   10.764696   0.765577   
0.147628   10.959031   0.686385   
0.085533   11.123409   0.577291   
0.040928   11.256023   0.430752   
0.013953   11.355661   0.236877   
0.010717   11.416518   0.126209   
0.008926   11.674125   -0.133879   
0.008887   11.583326   -0.251688   
0.026915   11.431218   -0.460349   
0.057685   11.257329   -0.622275   
0.102745   11.060486   -0.747640   
0.163777   10.839522   -0.843593   
0.241864   10.594399   -0.914034   
0.336952   10.327008   -0.959823   
0.447472   10.041711   -0.979390   
0.570108   9.745615   -0.969664   
0.699749   9.448556   -0.927194   
0.829683   9.162713   -0.849337   
0.952044   8.901837   -0.735324   
1.058523   8.680093   -0.587059   
1.141256   8.510666   -0.409480   
1.193759   8.404300   -0.210427   
1.211760   8.368027   -0.000014   
1.193767   8.404293   0.210400   
1.141271   8.510653   0.409456   
1.058543   8.680075   0.587041   
0.952069   8.901816   0.735312   
0.829711   9.162692   0.849331   
0.699778   9.448536   0.927195   
0.570135   9.745599   0.969671   
0.447497   10.041700   0.979401   
0.336974   10.327002   0.959837   
0.241881   10.594398   0.914050   
0.163790   10.839527   0.843609   
0.102753   11.060495   0.747654   
0.057690   11.257340   0.622286   
0.026918   11.431230   0.460356   
0.008888   11.583335   0.251692   
0.008926   11.674132   0.133881   
0.006596   11.942920   -0.138014   
0.002591   11.822243   -0.259572   
0.009872   11.618603   -0.477017   
0.024410   11.405377   -0.649992   
0.049867   11.178049   -0.789420   
0.090304   10.931782   -0.902223   
0.149160   10.662964   -0.991318   
0.228462   10.370405   -1.056005   
0.328203   10.056245   -1.092729   
0.445909   9.726533   -1.096186   
0.576475   9.391386   -1.060701   
0.712328   9.064630   -0.981737   
0.843999   8.762816   -0.857315   
0.961078   8.503672   -0.689116   
1.053456   8.304117   -0.483020   
1.112662   8.178174   -0.248951   
1.133061   8.135109   -0.000018   
1.112672   8.178164   0.248915   
1.053475   8.304099   0.482989   
0.961105   8.503647   0.689092   
0.844032   8.762788   0.857299   
0.712364   9.064600   0.981729   
0.576512   9.391359   1.060702   
0.445944   9.726510   1.096195   
0.328235   10.056229   1.092744   
0.228490   10.370396   1.056024   
0.149182   10.662963   0.991338   
0.090320   10.931788   0.902243   
0.049879   11.178060   0.789438   
0.024416   11.405392   0.650006   
0.009876   11.618618   0.477027   
0.002593   11.822257   0.259577   
0.006596   11.942931   0.138016   
0.003493   12.214641   -0.137727   
-0.005332   12.065086   -0.258941   
-0.011270   11.812516   -0.478132   
-0.016343   11.564080   -0.657340   
-0.014219   11.310690   -0.808554   
0.001959   11.042884   -0.938541   
0.038359   10.752707   -1.049082   
0.099439   10.435259   -1.137521   
0.187084   10.089982   -1.197673   
0.299920   9.721617   -1.221147   
0.432937   9.340671   -1.199056   
0.577562   8.963151   -1.123984   
0.722316   8.609414   -0.991945   
0.854060   8.302090   -0.803952   
0.959710   8.063315   -0.566860   
1.028122   7.911719   -0.293205   
1.051809   7.859728   -0.000024   
1.028135   7.911706   0.293158   
0.959734   8.063290   0.566819   
0.854095   8.302056   0.803920   
0.722357   8.609375   0.991923   
0.577608   8.963111   1.123975   
0.432984   9.340634   1.199057   
0.299965   9.721587   1.221159   
0.187124   10.089960   1.197692   
0.099474   10.435247   1.137545   
0.038387   10.752705   1.049109   
0.001980   11.042891   0.938567   
-0.014205   11.310705   0.808578   
-0.016334   11.564100   0.657359   
-0.011266   11.812537   0.478145   
-0.005330   12.065105   0.258947   
0.003493   12.214658   0.137730   
-0.000604   12.479000   -0.131897   
-0.015199   12.302980   -0.247788   
-0.037366   12.006455   -0.460329   
-0.066221   11.729621   -0.640251   
-0.092161   11.457399   -0.800743   
-0.105066   11.174582   -0.948414   
-0.095606   10.867902   -1.083753   
-0.056419   10.527871   -1.201779   
0.016762   10.150473   -1.293022   
0.124090   9.738642   -1.345036   
0.260882   9.303223   -1.344493   
0.417467   8.863001   -1.279790   
0.579868   8.443430   -1.143790   
0.731395   8.073907   -0.936161   
0.854981   7.783892   -0.664706   
0.935854   7.598538   -0.345254   
0.963999   7.534761   -0.000032   
0.935870   7.598521   0.345193   
0.855012   7.783859   0.664652   
0.731439   8.073862   0.936119   
0.579921   8.443378   1.143762   
0.417525   8.862948   1.279778   
0.260941   9.303174   1.344495   
0.124147   9.738601   1.345051   
0.016813   10.150443   1.293047   
-0.056375   10.527855   1.201811   
-0.095570   10.867899   1.083789   
-0.105040   11.174591   0.948448   
-0.092143   11.457419   0.800774   
-0.066210   11.729647   0.640276   
-0.037360   12.006484   0.460346   
-0.015197   12.303007   0.247797   
-0.000603   12.479024   0.131901   
-0.005874   12.723292   -0.119237   
-0.027178   12.525196   -0.223824   
-0.068889   12.192842   -0.419737   
-0.126184   11.897619   -0.593946   
-0.185640   11.616989   -0.760746   