<VTKFile type="UnstructuredGrid"  version="0.1"   > 
<UnstructuredGrid> 
<Piece  NumberOfPoints="  105" NumberOfCells=" 80"> 
<Points> 
<DataArray  type="Float64"  NumberOfComponents="3"  format="ascii" > 
0.000000 -3.000000 0.0 
1.200000 -3.000000 0.0 
2.400000 -3.000000 0.0 
3.600000 -3.000000 0.0 
4.800000 -3.000000 0.0 
6.000000 -3.000000 0.0 
7.200000 -3.000000 0.0 
8.400000 -3.000000 0.0 
9.600000 -3.000000 0.0 
10.800000 -3.000000 0.0 
12.000000 -3.000000 0.0 
13.200000 -3.000000 0.0 
14.400000 -3.000000 0.0 
15.600000 -3.000000 0.0 
16.800000 -3.000000 0.0 
18.000000 -3.000000 0.0 
19.200000 -3.000000 0.0 
20.400000 -3.000000 0.0 
21.600000 -3.000000 0.0 
22.800000 -3.000000 0.0 
24.000000 -3.000000 0.0 
0.000000 -1.500000 0.0 
1.200000 -1.500000 0.0 
2.400000 -1.500000 0.0 
3.600000 -1.500000 0.0 
4.800000 -1.500000 0.0 
6.000000 -1.500000 0.0 
7.200000 -1.500000 0.0 
8.400000 -1.500000 0.0 
9.600000 -1.500000 0.0 
10.800000 -1.500000 0.0 
12.000000 -1.500000 0.0 
13.200000 -1.500000 0.0 
14.400000 -1.500000 0.0 
15.600000 -1.500000 0.0 
16.800000 -1.500000 0.0 
18.000000 -1.500000 0.0 
19.200000 -1.500000 0.0 
20.400000 -1.500000 0.0 
21.600000 -1.500000 0.0 
22.800000 -1.500000 0.0 
24.000000 -1.500000 0.0 
0.000000 0.000000 0.0 
1.200000 0.000000 0.0 
2.400000 0.000000 0.0 
3.600000 0.000000 0.0 
4.800000 0.000000 0.0 
6.000000 0.000000 0.0 
7.200000 0.000000 0.0 
8.400000 0.000000 0.0 
9.600000 0.000000 0.0 
10.800000 0.000000 0.0 
12.000000 0.000000 0.0 
13.200000 0.000000 0.0 
14.400000 0.000000 0.0 
15.600000 0.000000 0.0 
16.800000 0.000000 0.0 
18.000000 0.000000 0.0 
19.200000 0.000000 0.0 
20.400000 0.000000 0.0 
21.600000 0.000000 0.0 
22.800000 0.000000 0.0 
24.000000 0.000000 0.0 
0.000000 1.500000 0.0 
1.200000 1.500000 0.0 
2.400000 1.500000 0.0 
3.600000 1.500000 0.0 
4.800000 1.500000 0.0 
6.000000 1.500000 0.0 
7.200000 1.500000 0.0 
8.400000 1.500000 0.0 
9.600000 1.500000 0.0 
10.800000 1.500000 0.0 
12.000000 1.500000 0.0 
13.200000 1.500000 0.0 
14.400000 1.500000 0.0 
15.600000 1.500000 0.0 
16.800000 1.500000 0.0 
18.000000 1.500000 0.0 
19.200000 1.500000 0.0 
20.400000 1.500000 0.0 
21.600000 1.500000 0.0 
22.800000 1.500000 0.0 
24.000000 1.500000 0.0 
0.000000 3.000000 0.0 
1.200000 3.000000 0.0 
2.400000 3.000000 0.0 
3.600000 3.000000 0.0 
4.800000 3.000000 0.0 
6.000000 3.000000 0.0 
7.200000 3.000000 0.0 
8.400000 3.000000 0.0 
9.600000 3.000000 0.0 
10.800000 3.000000 0.0 
12.000000 3.000000 0.0 
13.200000 3.000000 0.0 
14.400000 3.000000 0.0 
15.600000 3.000000 0.0 
16.800000 3.000000 0.0 
18.000000 3.000000 0.0 
19.200000 3.000000 0.0 
20.400000 3.000000 0.0 
21.600000 3.000000 0.0 
22.800000 3.000000 0.0 
24.000000 3.000000 0.0 
</DataArray> 
</Points> 
<Cells> 
<DataArray  type="Int32"  Name="connectivity"  format="ascii"> 
0 1 22 21 
1 2 23 22 
2 3 24 23 
3 4 25 24 
4 5 26 25 
5 6 27 26 
6 7 28 27 
7 8 29 28 
8 9 30 29 
9 10 31 30 
10 11 32 31 
11 12 33 32 
12 13 34 33 
13 14 35 34 
14 15 36 35 
15 16 37 36 
16 17 38 37 
17 18 39 38 
18 19 40 39 
19 20 41 40 
21 22 43 42 
22 23 44 43 
23 24 45 44 
24 25 46 45 
25 26 47 46 
26 27 48 47 
27 28 49 48 
28 29 50 49 
29 30 51 50 
30 31 52 51 
31 32 53 52 
32 33 54 53 
33 34 55 54 
34 35 56 55 
35 36 57 56 
36 37 58 57 
37 38 59 58 
38 39 60 59 
39 40 61 60 
40 41 62 61 
42 43 64 63 
43 44 65 64 
44 45 66 65 
45 46 67 66 
46 47 68 67 
47 48 69 68 
48 49 70 69 
49 50 71 70 
50 51 72 71 
51 52 73 72 
52 53 74 73 
53 54 75 74 
54 55 76 75 
55 56 77 76 
56 57 78 77 
57 58 79 78 
58 59 80 79 
59 60 81 80 
60 61 82 81 
61 62 83 82 
63 64 85 84 
64 65 86 85 
65 66 87 86 
66 67 88 87 
67 68 89 88 
68 69 90 89 
69 70 91 90 
70 71 92 91 
71 72 93 92 
72 73 94 93 
73 74 95 94 
74 75 96 95 
75 76 97 96 
76 77 98 97 
77 78 99 98 
78 79 100 99 
79 80 101 100 
80 81 102 101 
81 82 103 102 
82 83 104 103 
</DataArray> 
<DataArray  type="Int32"  Name="offsets"  format="ascii"> 
4 
8 
12 
16 
20 
24 
28 
32 
36 
40 
44 
48 
52 
56 
60 
64 
68 
72 
76 
80 
84 
88 
92 
96 
100 
104 
108 
112 
116 
120 
124 
128 
132 
136 
140 
144 
148 
152 
156 
160 
164 
168 
172 
176 
180 
184 
188 
192 
196 
200 
204 
208 
212 
216 
220 
224 
228 
232 
236 
240 
244 
248 
252 
256 
260 
264 
268 
272 
276 
280 
284 
288 
292 
296 
300 
304 
308 
312 
316 
320 
</DataArray> 
<DataArray  type="UInt8"  Name="types"  format="ascii"> 
9 
9 
9 
9 
9 
9 
9 
9 
9 
9 
9 
9 
9 
9 
9 
9 
9 
9 
9 
9 
9 
9 
9 
9 
9 
9 
9 
9 
9 
9 
9 
9 
9 
9 
9 
9 
9 
9 
9 
9 
9 
9 
9 
9 
9 
9 
9 
9 
9 
9 
9 
9 
9 
9 
9 
9 
9 
9 
9 
9 
9 
9 
9 
9 
9 
9 
9 
9 
9 
9 
9 
9 
9 
9 
9 
9 
9 
9 
9 
9 
</DataArray> 
</Cells> 
<PointData  Vectors="sigma"> 
<DataArray  type="Float64"  Name="sigma" NumberOfComponents="3" format="ascii"> 
-10392.486672   -3117.746002   -2127.597210   
-7433.532594   67.570295   129.296731   
-7499.303301   61.186105   2.028781   
-7393.939711   -40.468451   4.244795   
-7189.157685   18.281061   -3.728968   
-7004.911247   -10.470948   2.056664   
-6797.039343   5.211715   -1.390407   
-6601.755205   -2.752048   0.790356   
-6399.086614   1.487083   -0.440615   
-6200.425673   -0.876730   0.212735   
-6000.233026   0.329642   0.096860   
-5799.960605   -0.208692   -0.017143   
-5600.053672   0.351989   0.001331   
-5399.835890   -0.643234   0.013182   
-5200.458721   1.169789   -0.037303   
-4998.796662   -2.080993   0.073901   
-4803.005923   3.588689   -0.138968   
-4592.641692   -5.603166   0.159159   
-4420.517173   7.148516   0.193102   
-4133.457428   6.731213   -8.395037   
-4516.945437   -245.386778   80.260529   
-3774.270631   -629.105947   -71.056032   
-3832.755822   -359.946662   -137.908733   
-3836.953509   -44.020365   -195.362397   
-3720.495202   5.266203   -185.276128   
-3605.463681   4.537546   -185.819996   
-3501.294822   1.060969   -187.117164   
-3400.076270   0.381198   -187.377441   
-3300.043666   -0.002423   -187.507587   
-3199.972462   0.021918   -187.490752   
-3100.005972   -0.006492   -187.490337   
-2999.991964   0.003328   -187.452734   
-2900.005281   -0.005072   -187.486535   
-2799.989461   0.004409   -187.497179   
-2700.026668   -0.007459   -187.509421   
-2599.935050   0.012350   -187.479254   
-2500.154848   -0.043976   -187.535956   
-2399.548396   0.005145   -187.402315   
-2300.729717   -0.431996   -187.565899   
-2194.884653   0.652616   -186.458732   
-2142.208560   -15.392745   -192.492748   
-2147.539588   -33.109653   -200.043384   
-0.000000   -0.000000   96.577900   
-0.000000   -0.000000   -64.523400   
-0.000000   -0.000000   -246.724145   
-0.000000   0.000000   -263.649951   
-0.000000   0.000000   -255.773268   
-0.000000   0.000000   -251.360272   
-0.000000   0.000000   -250.301236   
-0.000000   0.000000   -250.005334   
-0.000000   0.000000   -250.009610   
-0.000000   0.000000   -250.000431   
-0.000000   0.000000   -250.022969   
-0.000000   -0.000000   -250.011585   
-0.000000   0.000000   -249.990840   
-0.000000   0.000000   -250.016312   
-0.000000   0.000000   -249.969746   
-0.000000   0.000000   -250.068887   
-0.000000   0.000000   -249.974270   
-0.000000   0.000000   -250.464218   
-0.000000   0.000000   -250.646070   
-0.000000   0.000000   -253.931801   
-0.000000   0.000000   -257.817977   
3774.270631   629.105947   -71.056032   
3832.755822   359.946662   -137.908733   
3836.953509   44.020365   -195.362397   
3720.495202   -5.266203   -185.276128   
3605.463681   -4.537546   -185.819996   
3501.294822   -1.060969   -187.117164   
3400.076270   -0.381198   -187.377441   
3300.043666   0.002423   -187.507587   
3199.972462   -0.021918   -187.490752   
3100.005972   0.006492   -187.490337   
2999.991964   -0.003328   -187.452734   
2900.005281   0.005072   -187.486535   
2799.989461   -0.004409   -187.497179   
2700.026668   0.007459   -187.509421   
2599.935050   -0.012350   -187.479254   
2500.154848   0.043976   -187.535956   
2399.548396   -0.005145   -187.402315   
2300.729717   0.431996   -187.565899   
2194.884653   -0.652616   -186.458732   
2142.208560   15.392745   -192.492748   
2147.539588   33.109653   -200.043384   
7433.532594   -67.570295   129.296731   
8945.894986   1528.279948   -1062.784215   
7413.736153   -13.550922   66.770763   
7344.230493   -39.733583   -0.850094   
7199.425479   25.469699   3.150730   
6993.098514   -11.746388   -2.559687   
6803.333226   6.611498   1.423510   
6598.062978   -3.349399   -0.915511   
6401.090439   1.814389   0.501546   
6199.659820   -0.908362   -0.171877   
6000.193139   0.542711   0.097796   
5800.143349   -0.340816   0.049096   
5599.898248   0.425963   -0.001981   
5400.256196   -0.760889   -0.017986   
5199.316276   1.362113   0.043541   
5001.732322   -2.379239   -0.088136   
4795.719177   3.842079   0.116530   
4611.761548   -5.368602   0.027067   
4363.049560   -0.564023   -4.117939   
4468.731305   119.119131   40.226816   
4133.457428   -6.731213   -8.395037   
</DataArray> 
<DataArray  type="Float64"  Name="U" NumberOfComponents="3" format="ascii"> 
  0.00000000     0.00000000     0.00000000   
 -0.00032357    -0.00015741    -0.00015741   
 -0.00062387    -0.00036787    -0.00036787   
 -0.00092232    -0.00069235    -0.00069235   
 -0.00121373    -0.00113518    -0.00113518   
 -0.00149782    -0.00169288    -0.00169288   
 -0.00177373    -0.00236285    -0.00236285   
 -0.00204178    -0.00314150    -0.00314150   
 -0.00230176    -0.00402583    -0.00402583   
 -0.00255377    -0.00501252    -0.00501252   
 -0.00279776    -0.00609844    -0.00609844   
 -0.00303377    -0.00728034    -0.00728034   
 -0.00326176    -0.00855505    -0.00855505   
 -0.00348177    -0.00991935    -0.00991935   
 -0.00369376    -0.01137007    -0.01137007   
 -0.00389778    -0.01290394    -0.01290394   
 -0.00409373    -0.01451791    -0.01451791   
 -0.00428185    -0.01620848    -0.01620848   
 -0.00446160    -0.01797303    -0.01797303   
 -0.00463408    -0.01980741    -0.01980741   
 -0.00480037    -0.02170787    -0.02170787   
  0.00000000     0.00000000     0.00000000   
 -0.00014651    -0.00007431    -0.00007431   
 -0.00030202    -0.00028209    -0.00028209   
 -0.00045315    -0.00060892    -0.00060892   
 -0.00059961    -0.00105408    -0.00105408   
 -0.00074167    -0.00161412    -0.00161412   
 -0.00087970    -0.00228633    -0.00228633   
 -0.00101369    -0.00306726    -0.00306726   
 -0.00114370    -0.00395383    -0.00395383   
 -0.00126970    -0.00494278    -0.00494278   
 -0.00139169    -0.00603094    -0.00603094   
 -0.00150970    -0.00721509    -0.00721509   
 -0.00162369    -0.00849205    -0.00849205   
 -0.00173370    -0.00985860    -0.00985860   
 -0.00183969    -0.01131155    -0.01131155   
 -0.00194170    -0.01284772    -0.01284772   
 -0.00203968    -0.01446385    -0.01446385   
 -0.00213372    -0.01615688    -0.01615688   
 -0.00222360    -0.01792328    -0.01792328   
 -0.00230971    -0.01976048    -0.01976048   
 -0.00239268    -0.02166536    -0.02166536   
  0.00000000     0.00000000     0.00000000   
 -0.00000000    -0.00005202    -0.00005202   
 -0.00000000    -0.00025290    -0.00025290   
 -0.00000000    -0.00058084    -0.00058084   
 -0.00000000    -0.00102677    -0.00102677   
 -0.00000000    -0.00158791    -0.00158791   
 -0.00000000    -0.00226079    -0.00226079   
 -0.00000000    -0.00304253    -0.00304253   
 -0.00000000    -0.00392982    -0.00392982   
 -0.00000000    -0.00491953    -0.00491953   
 -0.00000000    -0.00600843    -0.00600843   
 -0.00000000    -0.00719334    -0.00719334   
 -0.00000000    -0.00847104    -0.00847104   
 -0.00000000    -0.00983836    -0.00983836   
 -0.00000000    -0.01129205    -0.01129205   
 -0.00000000    -0.01282898    -0.01282898   
 -0.00000000    -0.01444584    -0.01444584   
 -0.00000000    -0.01613965    -0.01613965   
 -0.00000000    -0.01790679    -0.01790679   
 -0.00000000    -0.01974486    -0.01974486   
 -0.00000000    -0.02164966    -0.02164966   
  0.00000000     0.00000000     0.00000000   
  0.00014651    -0.00007431    -0.00007431   
  0.00030202    -0.00028209    -0.00028209   
  0.00045315    -0.00060892    -0.00060892   
  0.00059961    -0.00105408    -0.00105408   
  0.00074167    -0.00161412    -0.00161412   
  0.00087970    -0.00228633    -0.00228633   
  0.00101369    -0.00306726    -0.00306726   
  0.00114370    -0.00395383    -0.00395383   
  0.00126970    -0.00494278    -0.00494278   
  0.00139169    -0.00603094    -0.00603094   
  0.00150970    -0.00721509    -0.00721509   
  0.00162369    -0.00849205    -0.00849205   
  0.00173370    -0.00985860    -0.00985860   
  0.00183969    -0.01131155    -0.01131155   
  0.00194170    -0.01284772    -0.01284772   
  0.00203968    -0.01446385    -0.01446385   
  0.00213372    -0.01615688    -0.01615688   
  0.00222360    -0.01792328    -0.01792328   
  0.00230971    -0.01976048    -0.01976048   
  0.00239268    -0.02166536    -0.02166536   
  0.00000000     0.00000000     0.00000000   
  0.00032357    -0.00015741    -0.00015741   
  0.00062387    -0.00036787    -0.00036787   
  0.00092232    -0.00069235    -0.00069235   
  0.00121373    -0.00113518    -0.00113518   
  0.00149782    -0.00169288    -0.00169288   
  0.00177373    -0.00236285    -0.00236285   
  0.00204178    -0.00314150    -0.00314150   
  0.00230176    -0.00402583    -0.00402583   
  0.00255377    -0.00501252    -0.00501252   
  0.00279776    -0.00609844    -0.00609844   
  0.00303377    -0.00728034    -0.00728034   
  0.00326176    -0.00855505    -0.00855505   
  0.00348177    -0.00991935    -0.00991935   
  0.00369376    -0.01137007    -0.01137007   
  0.00389778    -0.01290394    -0.01290394   
  0.00409373    -0.01451791    -0.01451791   
  0.00428185    -0.01620848    -0.01620848   
  0.00446160    -0.01797303    -0.01797303   
  0.00463408    -0.01980741    -0.01980741   
  0.00480037    -0.02170787    -0.02170787   
</DataArray> 
</PointData> 
</Piece> 
</UnstructuredGrid> 
</VTKFile> 
