<VTKFile type="UnstructuredGrid"  version="0.1"   > 
<UnstructuredGrid> 
<Piece  NumberOfPoints="  63" NumberOfCells=" 40"> 
<Points> 
<DataArray  type="Float64"  NumberOfComponents="3"  format="ascii" > 
24.000000 -3.000000 0.0 
25.200000 -3.000000 0.0 
26.400000 -3.000000 0.0 
27.600000 -3.000000 0.0 
28.800000 -3.000000 0.0 
30.000000 -3.000000 0.0 
31.200000 -3.000000 0.0 
32.400000 -3.000000 0.0 
33.600000 -3.000000 0.0 
34.800000 -3.000000 0.0 
36.000000 -3.000000 0.0 
37.200000 -3.000000 0.0 
38.400000 -3.000000 0.0 
39.600000 -3.000000 0.0 
40.800000 -3.000000 0.0 
42.000000 -3.000000 0.0 
43.200000 -3.000000 0.0 
44.400000 -3.000000 0.0 
45.600000 -3.000000 0.0 
46.800000 -3.000000 0.0 
48.000000 -3.000000 0.0 
24.000000 0.000000 0.0 
25.200000 0.000000 0.0 
26.400000 0.000000 0.0 
27.600000 0.000000 0.0 
28.800000 0.000000 0.0 
30.000000 0.000000 0.0 
31.200000 0.000000 0.0 
32.400000 0.000000 0.0 
33.600000 0.000000 0.0 
34.800000 0.000000 0.0 
36.000000 0.000000 0.0 
37.200000 0.000000 0.0 
38.400000 0.000000 0.0 
39.600000 0.000000 0.0 
40.800000 0.000000 0.0 
42.000000 0.000000 0.0 
43.200000 0.000000 0.0 
44.400000 0.000000 0.0 
45.600000 0.000000 0.0 
46.800000 0.000000 0.0 
48.000000 0.000000 0.0 
24.000000 3.000000 0.0 
25.200000 3.000000 0.0 
26.400000 3.000000 0.0 
27.600000 3.000000 0.0 
28.800000 3.000000 0.0 
30.000000 3.000000 0.0 
31.200000 3.000000 0.0 
32.400000 3.000000 0.0 
33.600000 3.000000 0.0 
34.800000 3.000000 0.0 
36.000000 3.000000 0.0 
37.200000 3.000000 0.0 
38.400000 3.000000 0.0 
39.600000 3.000000 0.0 
40.800000 3.000000 0.0 
42.000000 3.000000 0.0 
43.200000 3.000000 0.0 
44.400000 3.000000 0.0 
45.600000 3.000000 0.0 
46.800000 3.000000 0.0 
48.000000 3.000000 0.0 
</DataArray> 
</Points> 
<Cells> 
<DataArray  type="Int32"  Name="connectivity"  format="ascii"> 
0 1 22 21 
1 2 23 22 
2 3 24 23 
3 4 25 24 
4 5 26 25 
5 6 27 26 
6 7 28 27 
7 8 29 28 
8 9 30 29 
9 10 31 30 
10 11 32 31 
11 12 33 32 
12 13 34 33 
13 14 35 34 
14 15 36 35 
15 16 37 36 
16 17 38 37 
17 18 39 38 
18 19 40 39 
19 20 41 40 
21 22 43 42 
22 23 44 43 
23 24 45 44 
24 25 46 45 
25 26 47 46 
26 27 48 47 
27 28 49 48 
28 29 50 49 
29 30 51 50 
30 31 52 51 
31 32 53 52 
32 33 54 53 
33 34 55 54 
34 35 56 55 
35 36 57 56 
36 37 58 57 
37 38 59 58 
38 39 60 59 
39 40 61 60 
40 41 62 61 
</DataArray> 
<DataArray  type="Int32"  Name="offsets"  format="ascii"> 
4 
8 
12 
16 
20 
24 
28 
32 
36 
40 
44 
48 
52 
56 
60 
64 
68 
72 
76 
80 
84 
88 
92 
96 
100 
104 
108 
112 
116 
120 
124 
128 
132 
136 
140 
144 
148 
152 
156 
160 
</DataArray> 
<DataArray  type="UInt8"  Name="types"  format="ascii"> 
9 
9 
9 
9 
9 
9 
9 
9 
9 
9 
9 
9 
9 
9 
9 
9 
9 
9 
9 
9 
9 
9 
9 
9 
9 
9 
9 
9 
9 
9 
9 
9 
9 
9 
9 
9 
9 
9 
9 
9 
</DataArray> 
</Cells> 
<PointData  Vectors="sigma"> 
<DataArray  type="Float64"  Name="sigma" NumberOfComponents="3" format="ascii"> 
-3908.420955   -283.817760   -175.612862   
-3801.967749   -24.011311   16.667156   
-3534.946873   34.745008   1.591034   
-3433.102661   -71.572198   -2.210459   
-3229.192478   15.781156   -4.773778   
-2989.166885   -10.362547   3.323100   
-2803.725481   6.240769   -2.086403   
-2598.910533   -3.573955   1.227086   
-2400.193239   1.978944   -0.693739   
-2200.062602   -1.069494   0.381736   
-1999.896762   0.567468   -0.205934   
-1800.083872   -0.296756   0.109464   
-1599.943736   0.153368   -0.057510   
-1400.034418   -0.078491   0.029927   
-1199.980076   0.039848   -0.015445   
-1000.011115   -0.020107   0.007908   
-799.993961   0.010127   -0.004008   
-600.003215   -0.005153   0.001989   
-399.998333   0.002749   -0.000921   
-200.000707   -0.001591   0.000228   
-0.001127   -0.000848   0.001327   
-0.000000   -0.000000   -269.755507   
-0.000000   -0.000000   -259.470181   
-0.000000   -0.000000   -249.417816   
-0.000000   -0.000000   -248.446434   
-0.000000   -0.000000   -248.253890   
-0.000000   -0.000000   -249.867034   
-0.000000   -0.000000   -250.104093   
-0.000000   -0.000000   -249.935225   
-0.000000   -0.000000   -250.034666   
-0.000000   -0.000000   -249.982857   
-0.000000   -0.000000   -250.007954   
-0.000000   -0.000000   -249.996534   
-0.000000   -0.000000   -250.001412   
-0.000000   -0.000000   -249.999475   
-0.000000   -0.000000   -250.000168   
-0.000000   -0.000000   -249.999963   
-0.000000   -0.000000   -249.999996   
0.000000   -0.000000   -250.000011   
0.000000   0.000000   -249.999995   
0.000000   0.000000   -249.999934   
0.000000   0.000000   -249.999809   
3801.967749   24.011311   16.667156   
3721.683914   124.536376   -87.010914   
3617.535205   47.791754   7.228349   
3382.069675   -25.263082   -1.591372   
3211.134773   40.967373   0.556321   
3016.458980   -11.010963   -3.430090   
2794.038709   6.968251   2.275093   
2601.959360   -4.109857   -1.390071   
2399.486567   2.321724   0.804411   
2200.045001   -1.273206   -0.449837   
2000.073237   0.683125   0.245600   
1799.920249   -0.360418   -0.131722   
1600.059145   0.187624   0.069695   
1399.961906   -0.096608   -0.036478   
1200.022767   0.049299   0.018918   
999.987018   -0.024987   -0.009727   
800.007165   0.012630   0.004949   
599.996147   -0.006438   -0.002464   
400.001961   0.003372   0.001109   
199.999730   -0.000950   0.000203   
200.000707   0.001591   0.000228   
</DataArray> 
<DataArray  type="Float64"  Name="U" NumberOfComponents="3" format="ascii"> 
 -0.00480153    -0.02170515    -0.02170515   
 -0.00495522    -0.02367600    -0.02367600   
 -0.00510217    -0.02570368    -0.02570368   
 -0.00524039    -0.02778646    -0.02778646   
 -0.00537451    -0.02992641    -0.02992641   
 -0.00549817    -0.03211597    -0.03211597   
 -0.00561430    -0.03435438    -0.03435438   
 -0.00572226    -0.03663712    -0.03663712   
 -0.00582227    -0.03896171    -0.03896171   
 -0.00591427    -0.04132458    -0.04132458   
 -0.00599827    -0.04372270    -0.04372270   
 -0.00607427    -0.04615280    -0.04615280   
 -0.00614227    -0.04861171    -0.04861171   
 -0.00620227    -0.05109622    -0.05109622   
 -0.00625427    -0.05360312    -0.05360312   
 -0.00629827    -0.05612923    -0.05612923   
 -0.00633427    -0.05867134    -0.05867134   
 -0.00636227    -0.06122624    -0.06122624   
 -0.00638227    -0.06379075    -0.06379075   
 -0.00639427    -0.06636166    -0.06636166   
 -0.00639827    -0.06893576    -0.06893576   
 -0.00000000    -0.02164917    -0.02164917   
 -0.00000000    -0.02361954    -0.02361954   
 -0.00000000    -0.02564979    -0.02564979   
 -0.00000000    -0.02773683    -0.02773683   
 -0.00000000    -0.02987792    -0.02987792   
 -0.00000000    -0.03207123    -0.03207123   
 -0.00000000    -0.03431224    -0.03431224   
 -0.00000000    -0.03659819    -0.03659819   
 -0.00000000    -0.03892568    -0.03892568   
 -0.00000000    -0.04129159    -0.04129159   
 -0.00000000    -0.04369270    -0.04369270   
 -0.00000000    -0.04612580    -0.04612580   
 -0.00000000    -0.04858771    -0.04858771   
 -0.00000000    -0.05107522    -0.05107522   
 -0.00000000    -0.05358512    -0.05358512   
 -0.00000000    -0.05611423    -0.05611423   
 -0.00000000    -0.05865934    -0.05865934   
 -0.00000000    -0.06121724    -0.06121724   
 -0.00000000    -0.06378475    -0.06378475   
 -0.00000000    -0.06635866    -0.06635866   
 -0.00000000    -0.06893576    -0.06893576   
  0.00480153    -0.02170515    -0.02170515   
  0.00495522    -0.02367600    -0.02367600   
  0.00510217    -0.02570368    -0.02570368   
  0.00524039    -0.02778646    -0.02778646   
  0.00537451    -0.02992641    -0.02992641   
  0.00549817    -0.03211597    -0.03211597   
  0.00561430    -0.03435438    -0.03435438   
  0.00572226    -0.03663712    -0.03663712   
  0.00582227    -0.03896171    -0.03896171   
  0.00591427    -0.04132458    -0.04132458   
  0.00599827    -0.04372270    -0.04372270   
  0.00607427    -0.04615280    -0.04615280   
  0.00614227    -0.04861171    -0.04861171   
  0.00620227    -0.05109622    -0.05109622   
  0.00625427    -0.05360312    -0.05360312   
  0.00629827    -0.05612923    -0.05612923   
  0.00633427    -0.05867134    -0.05867134   
  0.00636227    -0.06122624    -0.06122624   
  0.00638227    -0.06379075    -0.06379075   
  0.00639427    -0.06636166    -0.06636166   
  0.00639827    -0.06893576    -0.06893576   
</DataArray> 
</PointData> 
</Piece> 
</UnstructuredGrid> 
</VTKFile> 
