<VTKFile type="UnstructuredGrid"  version="0.1"   > 
<UnstructuredGrid> 
<Piece  NumberOfPoints="  63" NumberOfCells=" 48"> 
<Points> 
<DataArray  type="Float64"  NumberOfComponents="3"  format="ascii" > 
0.000000 -3.000000 0.0 
3.125000 -3.000000 0.0 
6.250000 -3.000000 0.0 
9.375000 -3.000000 0.0 
12.500000 -3.000000 0.0 
15.625000 -3.000000 0.0 
18.750000 -3.000000 0.0 
21.875000 -3.000000 0.0 
25.000000 -3.000000 0.0 
0.000000 -2.100000 0.0 
3.125000 -2.100000 0.0 
6.250000 -2.100000 0.0 
9.375000 -2.100000 0.0 
12.500000 -2.100000 0.0 
15.625000 -2.100000 0.0 
18.750000 -2.100000 0.0 
21.875000 -2.100000 0.0 
25.000000 -2.100000 0.0 
0.000000 -1.200000 0.0 
3.125000 -1.200000 0.0 
6.250000 -1.200000 0.0 
9.375000 -1.200000 0.0 
12.500000 -1.200000 0.0 
15.625000 -1.200000 0.0 
18.750000 -1.200000 0.0 
21.875000 -1.200000 0.0 
25.000000 -1.200000 0.0 
0.000000 0.000000 0.0 
3.125000 0.000000 0.0 
6.250000 0.000000 0.0 
9.375000 0.000000 0.0 
12.500000 0.000000 0.0 
15.625000 0.000000 0.0 
18.750000 0.000000 0.0 
21.875000 0.000000 0.0 
25.000000 0.000000 0.0 
0.000000 1.200000 0.0 
3.125000 1.200000 0.0 
6.250000 1.200000 0.0 
9.375000 1.200000 0.0 
12.500000 1.200000 0.0 
15.625000 1.200000 0.0 
18.750000 1.200000 0.0 
21.875000 1.200000 0.0 
25.000000 1.200000 0.0 
0.000000 2.100000 0.0 
3.125000 2.100000 0.0 
6.250000 2.100000 0.0 
9.375000 2.100000 0.0 
12.500000 2.100000 0.0 
15.625000 2.100000 0.0 
18.750000 2.100000 0.0 
21.875000 2.100000 0.0 
25.000000 2.100000 0.0 
0.000000 3.000000 0.0 
3.125000 3.000000 0.0 
6.250000 3.000000 0.0 
9.375000 3.000000 0.0 
12.500000 3.000000 0.0 
15.625000 3.000000 0.0 
18.750000 3.000000 0.0 
21.875000 3.000000 0.0 
25.000000 3.000000 0.0 
</DataArray> 
</Points> 
<Cells> 
<DataArray  type="Int32"  Name="connectivity"  format="ascii"> 
0 1 10 9 
1 2 11 10 
2 3 12 11 
3 4 13 12 
4 5 14 13 
5 6 15 14 
6 7 16 15 
7 8 17 16 
9 10 19 18 
10 11 20 19 
11 12 21 20 
12 13 22 21 
13 14 23 22 
14 15 24 23 
15 16 25 24 
16 17 26 25 
18 19 28 27 
19 20 29 28 
20 21 30 29 
21 22 31 30 
22 23 32 31 
23 24 33 32 
24 25 34 33 
25 26 35 34 
27 28 37 36 
28 29 38 37 
29 30 39 38 
30 31 40 39 
31 32 41 40 
32 33 42 41 
33 34 43 42 
34 35 44 43 
36 37 46 45 
37 38 47 46 
38 39 48 47 
39 40 49 48 
40 41 50 49 
41 42 51 50 
42 43 52 51 
43 44 53 52 
45 46 55 54 
46 47 56 55 
47 48 57 56 
48 49 58 57 
49 50 59 58 
50 51 60 59 
51 52 61 60 
52 53 62 61 
</DataArray> 
<DataArray  type="Int32"  Name="offsets"  format="ascii"> 
4 
8 
12 
16 
20 
24 
28 
32 
36 
40 
44 
48 
52 
56 
60 
64 
68 
72 
76 
80 
84 
88 
92 
96 
100 
104 
108 
112 
116 
120 
124 
128 
132 
136 
140 
144 
148 
152 
156 
160 
164 
168 
172 
176 
180 
184 
188 
192 
</DataArray> 
<DataArray  type="UInt8"  Name="types"  format="ascii"> 
9 
9 
9 
9 
9 
9 
9 
9 
9 
9 
9 
9 
9 
9 
9 
9 
9 
9 
9 
9 
9 
9 
9 
9 
9 
9 
9 
9 
9 
9 
9 
9 
9 
9 
9 
9 
9 
9 
9 
9 
9 
9 
9 
9 
9 
9 
9 
9 
</DataArray> 
</Cells> 
<PointData  Vectors="sigma"> 
<DataArray  type="Float64"  Name="sigma" NumberOfComponents="3" format="ascii"> 
-7997.999501   6.235417   -0.311274   
-7479.339356   -0.247654   0.151966   
-6958.283837   0.363561   -0.341000   
-6437.597064   -0.835487   0.737804   
-5916.478181   1.651322   -1.371759   
-5396.169440   -3.014389   2.262804   
-4874.961098   4.797388   -2.837533   
-4346.039326   -2.635749   -2.607944   
-3791.344652   -156.455183   53.398152   
-5417.566392   0.635297   -126.558120   
-5235.291053   0.315148   -127.054390   
-4870.846085   -0.013438   -127.530033   
-4506.195864   0.037782   -127.497017   
-4141.785696   -0.105669   -127.500966   
-3776.793852   0.184597   -127.490731   
-3413.523489   1.213084   -128.574953   
-3054.103106   -48.728469   -124.193226   
-2874.890822   -99.205136   -118.700705   
-3095.733618   1.447158   -210.692409   
-2991.611584   0.705415   -210.308765   
-2783.354096   -0.001555   -209.975180   
-2574.965214   -0.007696   -209.995690   
-2366.737467   -0.017465   -210.010561   
-2158.134248   0.107662   -210.028914   
-1951.839286   0.760628   -209.518573   
-1747.517839   -26.202393   -214.189733   
-1644.862455   -53.724399   -219.345169   
-0.090774   -0.068236   -249.284614   
-0.043721   -0.027489   -249.680256   
0.005742   0.007665   -250.033551   
0.002834   -0.000818   -249.995090   
-0.000555   -0.001005   -250.002259   
0.000253   0.000451   -250.027169   
-0.000108   -0.000201   -248.503118   
-0.000441   -0.000081   -256.939452   
-0.001534   -0.000557   -266.921467   
3095.729893   -0.080008   -210.934667   
2991.637765   -0.021253   -210.430748   
2783.377404   -0.005123   -209.972897   
2574.963096   0.002981   -209.992450   
2366.738687   0.018741   -210.010524   
2158.133598   -0.108384   -210.028947   
1951.839531   -0.760325   -209.518558   
1747.518457   26.202467   -214.189645   
1644.864697   53.725049   -219.344952   
5417.831244   -0.955208   -127.125510   
5235.407478   -0.474253   -127.320690   
4870.831179   0.016097   -127.508605   
4506.195503   -0.037670   -127.494650   
4141.785020   0.104795   -127.501522   
3776.794222   -0.184152   -127.490261   
3413.523341   -1.213290   -128.575258   
3054.102869   48.728476   -124.193564   
2874.889821   99.204807   -118.702050   
7479.144217   0.205857   0.162247   
7478.088677   -4.043531   -0.005443   
6958.361131   0.503809   0.468385   
6437.397893   -0.969137   -0.892247   
5916.871169   1.903332   1.525860   
5395.726232   -3.212703   -2.120964   
4871.100835   2.818531   -0.162026   
4333.155934   75.831500   25.276062   
4346.037379   2.632158   -2.601248   
</DataArray> 
<DataArray  type="Float64"  Name="U" NumberOfComponents="3" format="ascii"> 
 -0.00000000    -0.00012002    -0.00012002   
 -0.00080622    -0.00058455    -0.00058455   
 -0.00155817    -0.00186063    -0.00186063   
 -0.00225588    -0.00389175    -0.00389175   
 -0.00289931    -0.00662138    -0.00662138   
 -0.00348854    -0.00999299    -0.00999299   
 -0.00402342    -0.01395018    -0.01395018   
 -0.00450403    -0.01843634    -0.01843634   
 -0.00492626    -0.02338482    -0.02338482   
  0.00000681    -0.00005892    -0.00005892   
 -0.00055751    -0.00052733    -0.00052733   
 -0.00108389    -0.00180739    -0.00180739   
 -0.00157226    -0.00384251    -0.00384251   
 -0.00202272    -0.00657610    -0.00657610   
 -0.00243506    -0.00995176    -0.00995176   
 -0.00280969    -0.01391280    -0.01391280   
 -0.00314596    -0.01840302    -0.01840302   
 -0.00344423    -0.02336165    -0.02336165   
  0.00000645    -0.00001910    -0.00001910   
 -0.00031606    -0.00049031    -0.00049031   
 -0.00061684    -0.00177296    -0.00177296   
 -0.00089591    -0.00381064    -0.00381064   
 -0.00115330    -0.00654683    -0.00654683   
 -0.00138894    -0.00992503    -0.00992503   
 -0.00160301    -0.01388868    -0.01388868   
 -0.00179533    -0.01838129    -0.01838129   
 -0.00196639    -0.02334719    -0.02334719   
 -0.00000000    -0.00000011    -0.00000011   
 -0.00000001    -0.00047235    -0.00047235   
 -0.00000001    -0.00175626    -0.00175626   
 -0.00000001    -0.00379519    -0.00379519   
 -0.00000001    -0.00653263    -0.00653263   
 -0.00000001    -0.00991207    -0.00991207   
 -0.00000001    -0.01387699    -0.01387699   
 -0.00000001    -0.01837071    -0.01837071   
 -0.00000001    -0.02334025    -0.02334025   
 -0.00000646    -0.00001907    -0.00001907   
  0.00031604    -0.00049030    -0.00049030   
  0.00061682    -0.00177296    -0.00177296   
  0.00089590    -0.00381064    -0.00381064   
  0.00115329    -0.00654683    -0.00654683   
  0.00138893    -0.00992503    -0.00992503   
  0.00160299    -0.01388868    -0.01388868   
  0.00179531    -0.01838129    -0.01838129   
  0.00196637    -0.02334719    -0.02334719   
 -0.00000684    -0.00005882    -0.00005882   
  0.00055749    -0.00052733    -0.00052733   
  0.00108388    -0.00180739    -0.00180739   
  0.00157224    -0.00384251    -0.00384251   
  0.00202270    -0.00657610    -0.00657610   
  0.00243504    -0.00995176    -0.00995176   
  0.00280967    -0.01391280    -0.01391280   
  0.00314594    -0.01840302    -0.01840302   
  0.00344422    -0.02336165    -0.02336165   
 -0.00000000    -0.00012001    -0.00012001   
  0.00080621    -0.00058454    -0.00058454   
  0.00155816    -0.00186063    -0.00186063   
  0.00225586    -0.00389175    -0.00389175   
  0.00289929    -0.00662138    -0.00662138   
  0.00348852    -0.00999299    -0.00999299   
  0.00402341    -0.01395018    -0.01395018   
  0.00450401    -0.01843634    -0.01843634   
  0.00492625    -0.02338482    -0.02338482   
</DataArray> 
</PointData> 
</Piece> 
</UnstructuredGrid> 
</VTKFile> 
