<VTKFile type="UnstructuredGrid"  version="0.1"   > 
<UnstructuredGrid> 
<Piece  NumberOfPoints="  99" NumberOfCells=" 30"> 
<Points> 
<DataArray  type="Float64"  NumberOfComponents="3"  format="ascii" > 
0.000000 0.000000 10.000000 
10.000000 0.000000 10.000000 
20.000000 0.000000 10.000000 
30.000000 0.000000 10.000000 
40.000000 0.000000 10.000000 
50.000000 0.000000 10.000000 
60.000000 0.000000 10.000000 
70.000000 0.000000 10.000000 
80.000000 0.000000 10.000000 
90.000000 0.000000 10.000000 
100.000000 0.000000 10.000000 
110.000000 0.000000 10.000000 
120.000000 0.000000 10.000000 
130.000000 0.000000 10.000000 
140.000000 0.000000 10.000000 
150.000000 0.000000 10.000000 
160.000000 0.000000 10.000000 
170.000000 0.000000 10.000000 
180.000000 0.000000 10.000000 
190.000000 0.000000 10.000000 
200.000000 0.000000 10.000000 
210.000000 0.000000 10.000000 
220.000000 0.000000 10.000000 
230.000000 0.000000 10.000000 
240.000000 0.000000 10.000000 
250.000000 0.000000 10.000000 
260.000000 0.000000 10.000000 
270.000000 0.000000 10.000000 
280.000000 0.000000 10.000000 
290.000000 0.000000 10.000000 
300.000000 0.000000 10.000000 
310.000000 0.000000 10.000000 
320.000000 0.000000 10.000000 
0.000000 40.000000 10.000000 
10.000000 40.000000 10.000000 
20.000000 40.000000 10.000000 
30.000000 40.000000 10.000000 
40.000000 40.000000 10.000000 
50.000000 40.000000 10.000000 
60.000000 40.000000 10.000000 
70.000000 40.000000 10.000000 
80.000000 40.000000 10.000000 
90.000000 40.000000 10.000000 
100.000000 40.000000 10.000000 
110.000000 40.000000 10.000000 
120.000000 40.000000 10.000000 
130.000000 40.000000 10.000000 
140.000000 40.000000 10.000000 
150.000000 40.000000 10.000000 
160.000000 40.000000 10.000000 
170.000000 40.000000 10.000000 
180.000000 40.000000 10.000000 
190.000000 40.000000 10.000000 
200.000000 40.000000 10.000000 
210.000000 40.000000 10.000000 
220.000000 40.000000 10.000000 
230.000000 40.000000 10.000000 
240.000000 40.000000 10.000000 
250.000000 40.000000 10.000000 
260.000000 40.000000 10.000000 
270.000000 40.000000 10.000000 
280.000000 40.000000 10.000000 
290.000000 40.000000 10.000000 
300.000000 40.000000 10.000000 
310.000000 40.000000 10.000000 
320.000000 40.000000 10.000000 
0.000000 80.000000 10.000000 
10.000000 80.000000 10.000000 
20.000000 80.000000 10.000000 
30.000000 80.000000 10.000000 
40.000000 80.000000 10.000000 
50.000000 80.000000 10.000000 
60.000000 80.000000 10.000000 
70.000000 80.000000 10.000000 
80.000000 80.000000 10.000000 
90.000000 80.000000 10.000000 
100.000000 80.000000 10.000000 
110.000000 80.000000 10.000000 
120.000000 80.000000 10.000000 
130.000000 80.000000 10.000000 
140.000000 80.000000 10.000000 
150.000000 80.000000 10.000000 
160.000000 80.000000 10.000000 
170.000000 80.000000 10.000000 
180.000000 80.000000 10.000000 
190.000000 80.000000 10.000000 
200.000000 80.000000 10.000000 
210.000000 80.000000 10.000000 
220.000000 80.000000 10.000000 
230.000000 80.000000 10.000000 
240.000000 80.000000 10.000000 
250.000000 80.000000 10.000000 
260.000000 80.000000 10.000000 
270.000000 80.000000 10.000000 
280.000000 80.000000 10.000000 
290.000000 80.000000 10.000000 
300.000000 80.000000 10.000000 
310.000000 80.000000 10.000000 
320.000000 80.000000 10.000000 
</DataArray> 
</Points> 
<Cells> 
<DataArray  type="Int32"  Name="connectivity"  format="ascii"> 
17 18 51 50 
18 19 52 51 
19 20 53 52 
20 21 54 53 
21 22 55 54 
22 23 56 55 
23 24 57 56 
24 25 58 57 
25 26 59 58 
26 27 60 59 
27 28 61 60 
28 29 62 61 
29 30 63 62 
30 31 64 63 
31 32 65 64 
50 51 84 83 
51 52 85 84 
52 53 86 85 
53 54 87 86 
54 55 88 87 
55 56 89 88 
56 57 90 89 
57 58 91 90 
58 59 92 91 
59 60 93 92 
60 61 94 93 
61 62 95 94 
62 63 96 95 
63 64 97 96 
64 65 98 97 
</DataArray> 
<DataArray  type="Int32"  Name="offsets"  format="ascii"> 
4 
8 
12 
16 
20 
24 
28 
32 
36 
40 
44 
48 
52 
56 
60 
64 
68 
72 
76 
80 
84 
88 
92 
96 
100 
104 
108 
112 
116 
120 
</DataArray> 
<DataArray  type="UInt8"  Name="types"  format="ascii"> 
9 
9 
9 
9 
9 
9 
9 
9 
9 
9 
9 
9 
9 
9 
9 
9 
9 
9 
9 
9 
9 
9 
9 
9 
9 
9 
9 
9 
9 
9 
</DataArray> 
</Cells> 
<PointData  Vectors="sigma"> 
<DataArray  type="Float64"  Name="sigma" NumberOfComponents="3" format="ascii"> 
0.000000   0.000000   0.000000   
0.000000   0.000000   0.000000   
0.000000   0.000000   0.000000   
0.000000   0.000000   0.000000   
0.000000   0.000000   0.000000   
0.000000   0.000000   0.000000   
0.000000   0.000000   0.000000   
0.000000   0.000000   0.000000   
0.000000   0.000000   0.000000   
0.000000   0.000000   0.000000   
0.000000   0.000000   0.000000   
0.000000   0.000000   0.000000   
0.000000   0.000000   0.000000   
0.000000   0.000000   0.000000   
0.000000   0.000000   0.000000   
0.000000   0.000000   0.000000   
0.000000   0.000000   0.000000   
0.000000   0.000000   0.000000   
0.000000   0.000000   0.000000   
0.000000   0.000000   0.000000   
0.000000   0.000000   0.000000   
0.000000   0.000000   0.000000   
0.000000   0.000000   0.000000   
0.000000   0.000000   0.000000   
0.000000   0.000000   0.000000   
0.000000   0.000000   0.000000   
0.000000   0.000000   0.000000   
0.000000   0.000000   0.000000   
0.000000   0.000000   0.000000   
0.000000   0.000000   0.000000   
0.000000   0.000000   0.000000   
0.000000   0.000000   0.000000   
0.000000   0.000000   0.000000   
0.000000   0.000000   0.000000   
0.000000   0.000000   0.000000   
0.000000   0.000000   0.000000   
0.000000   0.000000   0.000000   
0.000000   0.000000   0.000000   
0.000000   0.000000   0.000000   
0.000000   0.000000   0.000000   
0.000000   0.000000   0.000000   
0.000000   0.000000   0.000000   
0.000000   0.000000   0.000000   
0.000000   0.000000   0.000000   
0.000000   0.000000   0.000000   
0.000000   0.000000   0.000000   
0.000000   0.000000   0.000000   
0.000000   0.000000   0.000000   
0.000000   0.000000   0.000000   
0.000000   0.000000   0.000000   
0.000000   0.000000   0.000000   
0.000000   0.000000   0.000000   
0.000000   0.000000   0.000000   
0.000000   0.000000   0.000000   
0.000000   0.000000   0.000000   
0.000000   0.000000   0.000000   
0.000000   0.000000   0.000000   
0.000000   0.000000   0.000000   
0.000000   0.000000   0.000000   
0.000000   0.000000   0.000000   
0.000000   0.000000   0.000000   
0.000000   0.000000   0.000000   
0.000000   0.000000   0.000000   
0.000000   0.000000   0.000000   
0.000000   0.000000   0.000000   
0.000000   0.000000   0.000000   
0.000000   0.000000   0.000000   
0.000000   0.000000   0.000000   
0.000000   0.000000   0.000000   
0.000000   0.000000   0.000000   
0.000000   0.000000   0.000000   
0.000000   0.000000   0.000000   
0.000000   0.000000   0.000000   
0.000000   0.000000   0.000000   
0.000000   0.000000   0.000000   
0.000000   0.000000   0.000000   
0.000000   0.000000   0.000000   
0.000000   0.000000   0.000000   
0.000000   0.000000   0.000000   
0.000000   0.000000   0.000000   
0.000000   0.000000   0.000000   
0.000000   0.000000   0.000000   
0.000000   0.000000   0.000000   
0.000000   0.000000   0.000000   
0.000000   0.000000   0.000000   
0.000000   0.000000   0.000000   
0.000000   0.000000   0.000000   
0.000000   0.000000   0.000000   
0.000000   0.000000   0.000000   
0.000000   0.000000   0.000000   
0.000000   0.000000   0.000000   
0.000000   0.000000   0.000000   
0.000000   0.000000   0.000000   
0.000000   0.000000   0.000000   
0.000000   0.000000   0.000000   
0.000000   0.000000   0.000000   
0.000000   0.000000   0.000000   
0.000000   0.000000   0.000000   
0.000000   0.000000   0.000000   
</DataArray> 
<DataArray  type="Float64"  Name="U" NumberOfComponents="3" format="ascii"> 
  0.00000000     0.00000000     0.00000000   
  0.00000000     0.00000000     0.00000000   
  0.00000000     0.00000000     0.00000000   
  0.00000000     0.00000000     0.00000000   
  0.00000000     0.00000000     0.00000000   
  0.00000000     0.00000000     0.00000000   
  0.00000000     0.00000000     0.00000000   
  0.00000000     0.00000000     0.00000000   
  0.00000000     0.00000000     0.00000000   
  0.00000000     0.00000000     0.00000000   
  0.00000000     0.00000000     0.00000000   
  0.00000000     0.00000000     0.00000000   
  0.00000000     0.00000000     0.00000000   
  0.00000000     0.00000000     0.00000000   
  0.00000000     0.00000000     0.00000000   
  0.00000000     0.00000000    -8.25656173   
  0.00000000     0.00000000   -42.27199390   
  0.00000000     0.00000000   -55.48363579   
  0.00000000     0.00000000   -61.50342539   
  0.00000000     0.00000000   -67.72038211   
  0.00000000     0.00000000   -74.13589940   
  0.00000000     0.00000000   -80.73207303   
  0.00000000     0.00000000   -87.49424864   
  0.00000000     0.00000000   -94.40655910   
  0.00000000     0.00000000   -101.45409966   
  0.00000000     0.00000000   -108.62150786   
  0.00000000     0.00000000   -115.89364060   
  0.00000000     0.00000000   -123.25519911   
  0.00000000     0.00000000   -130.69086226   
  0.00000000     0.00000000   -138.18517036   
  0.00000000     0.00000000   -145.72252442   
  0.00000000     0.00000000   -153.28704742   
  0.00000000     0.00000000   -160.86189013   
  0.00000000     0.00000000     0.00000000   
  0.00000000     0.00000000     0.00000000   
  0.00000000     0.00000000     0.00000000   
  0.00000000     0.00000000     0.00000000   
  0.00000000     0.00000000     0.00000000   
  0.00000000     0.00000000     0.00000000   
  0.00000000     0.00000000     0.00000000   
  0.00000000     0.00000000     0.00000000   
  0.00000000     0.00000000     0.00000000   
  0.00000000     0.00000000     0.00000000   
  0.00000000     0.00000000     0.00000000   
  0.00000000     0.00000000     0.00000000   
  0.00000000     0.00000000     0.00000000   
  0.00000000     0.00000000     0.00000000   
  0.00000000     0.00000000     0.00000000   
  0.00000000     0.00000000    -8.33983646   
  0.00000000     0.00000000   -42.68705047   
  0.00000000     0.00000000   -55.97350927   
  0.00000000     0.00000000   -61.97464111   
  0.00000000     0.00000000   -68.16536415   
  0.00000000     0.00000000   -74.55234148   
  0.00000000     0.00000000   -81.11807538   
  0.00000000     0.00000000   -87.84853407   
  0.00000000     0.00000000   -94.72839176   
  0.00000000     0.00000000   -101.74318767   
  0.00000000     0.00000000   -108.87802855   
  0.00000000     0.00000000   -116.11826171   
  0.00000000     0.00000000   -123.44918491   
  0.00000000     0.00000000   -130.85624110   
  0.00000000     0.00000000   -138.32499391   
  0.00000000     0.00000000   -145.84119042   
  0.00000000     0.00000000   -153.39069824   
  0.00000000     0.00000000   -160.95907064   
  0.00000000     0.00000000     0.00000000   
  0.00000000     0.00000000     0.00000000   
  0.00000000     0.00000000     0.00000000   
  0.00000000     0.00000000     0.00000000   
  0.00000000     0.00000000     0.00000000   
  0.00000000     0.00000000     0.00000000   
  0.00000000     0.00000000     0.00000000   
  0.00000000     0.00000000     0.00000000   
  0.00000000     0.00000000     0.00000000   
  0.00000000     0.00000000     0.00000000   
  0.00000000     0.00000000     0.00000000   
  0.00000000     0.00000000     0.00000000   
  0.00000000     0.00000000     0.00000000   
  0.00000000     0.00000000     0.00000000   
  0.00000000     0.00000000     0.00000000   
  0.00000000     0.00000000    -8.25656173   
  0.00000000     0.00000000   -42.27199390   
  0.00000000     0.00000000   -55.48363579   
  0.00000000     0.00000000   -61.50342539   
  0.00000000     0.00000000   -67.72038211   
  0.00000000     0.00000000   -74.13589940   
  0.00000000     0.00000000   -80.73207303   
  0.00000000     0.00000000   -87.49424864   
  0.00000000     0.00000000   -94.40655910   
  0.00000000     0.00000000   -101.45409966   
  0.00000000     0.00000000   -108.62150786   
  0.00000000     0.00000000   -115.89364060   
  0.00000000     0.00000000   -123.25519911   
  0.00000000     0.00000000   -130.69086226   
  0.00000000     0.00000000   -138.18517035   
  0.00000000     0.00000000   -145.72252442   
  0.00000000     0.00000000   -153.28704742   
  0.00000000     0.00000000   -160.86189013   
</DataArray> 
</PointData> 
</Piece> 
</UnstructuredGrid> 
</VTKFile> 
