<VTKFile type="UnstructuredGrid"  version="0.1"   > 
<UnstructuredGrid> 
<Piece  NumberOfPoints="  990" NumberOfCells=" 640"> 
<Points> 
<DataArray  type="Float64"  NumberOfComponents="3"  format="ascii" > 
0.000000 0.000000 0.000000 
3.125000 0.000000 0.000000 
6.250000 0.000000 0.000000 
9.375000 0.000000 0.000000 
12.500000 0.000000 0.000000 
15.625000 0.000000 0.000000 
18.750000 0.000000 0.000000 
21.875000 0.000000 0.000000 
25.000000 0.000000 0.000000 
28.125000 0.000000 0.000000 
31.250000 0.000000 0.000000 
34.375000 0.000000 0.000000 
37.500000 0.000000 0.000000 
40.625000 0.000000 0.000000 
43.750000 0.000000 0.000000 
46.875000 0.000000 0.000000 
50.000000 0.000000 0.000000 
53.125000 0.000000 0.000000 
56.250000 0.000000 0.000000 
59.375000 0.000000 0.000000 
62.500000 0.000000 0.000000 
65.625000 0.000000 0.000000 
68.750000 0.000000 0.000000 
71.875000 0.000000 0.000000 
75.000000 0.000000 0.000000 
78.125000 0.000000 0.000000 
81.250000 0.000000 0.000000 
84.375000 0.000000 0.000000 
87.500000 0.000000 0.000000 
90.625000 0.000000 0.000000 
93.750000 0.000000 0.000000 
96.875000 0.000000 0.000000 
100.000000 0.000000 0.000000 
0.000000 20.000000 0.000000 
3.125000 20.000000 0.000000 
6.250000 20.000000 0.000000 
9.375000 20.000000 0.000000 
12.500000 20.000000 0.000000 
15.625000 20.000000 0.000000 
18.750000 20.000000 0.000000 
21.875000 20.000000 0.000000 
25.000000 20.000000 0.000000 
28.125000 20.000000 0.000000 
31.250000 20.000000 0.000000 
34.375000 20.000000 0.000000 
37.500000 20.000000 0.000000 
40.625000 20.000000 0.000000 
43.750000 20.000000 0.000000 
46.875000 20.000000 0.000000 
50.000000 20.000000 0.000000 
53.125000 20.000000 0.000000 
56.250000 20.000000 0.000000 
59.375000 20.000000 0.000000 
62.500000 20.000000 0.000000 
65.625000 20.000000 0.000000 
68.750000 20.000000 0.000000 
71.875000 20.000000 0.000000 
75.000000 20.000000 0.000000 
78.125000 20.000000 0.000000 
81.250000 20.000000 0.000000 
84.375000 20.000000 0.000000 
87.500000 20.000000 0.000000 
90.625000 20.000000 0.000000 
93.750000 20.000000 0.000000 
96.875000 20.000000 0.000000 
100.000000 20.000000 0.000000 
0.000000 40.000000 0.000000 
3.125000 40.000000 0.000000 
6.250000 40.000000 0.000000 
9.375000 40.000000 0.000000 
12.500000 40.000000 0.000000 
15.625000 40.000000 0.000000 
18.750000 40.000000 0.000000 
21.875000 40.000000 0.000000 
25.000000 40.000000 0.000000 
28.125000 40.000000 0.000000 
31.250000 40.000000 0.000000 
34.375000 40.000000 0.000000 
37.500000 40.000000 0.000000 
40.625000 40.000000 0.000000 
43.750000 40.000000 0.000000 
46.875000 40.000000 0.000000 
50.000000 40.000000 0.000000 
53.125000 40.000000 0.000000 
56.250000 40.000000 0.000000 
59.375000 40.000000 0.000000 
62.500000 40.000000 0.000000 
65.625000 40.000000 0.000000 
68.750000 40.000000 0.000000 
71.875000 40.000000 0.000000 
75.000000 40.000000 0.000000 
78.125000 40.000000 0.000000 
81.250000 40.000000 0.000000 
84.375000 40.000000 0.000000 
87.500000 40.000000 0.000000 
90.625000 40.000000 0.000000 
93.750000 40.000000 0.000000 
96.875000 40.000000 0.000000 
100.000000 40.000000 0.000000 
0.000000 60.000000 0.000000 
3.125000 60.000000 0.000000 
6.250000 60.000000 0.000000 
9.375000 60.000000 0.000000 
12.500000 60.000000 0.000000 
15.625000 60.000000 0.000000 
18.750000 60.000000 0.000000 
21.875000 60.000000 0.000000 
25.000000 60.000000 0.000000 
28.125000 60.000000 0.000000 
31.250000 60.000000 0.000000 
34.375000 60.000000 0.000000 
37.500000 60.000000 0.000000 
40.625000 60.000000 0.000000 
43.750000 60.000000 0.000000 
46.875000 60.000000 0.000000 
50.000000 60.000000 0.000000 
53.125000 60.000000 0.000000 
56.250000 60.000000 0.000000 
59.375000 60.000000 0.000000 
62.500000 60.000000 0.000000 
65.625000 60.000000 0.000000 
68.750000 60.000000 0.000000 
71.875000 60.000000 0.000000 
75.000000 60.000000 0.000000 
78.125000 60.000000 0.000000 
81.250000 60.000000 0.000000 
84.375000 60.000000 0.000000 
87.500000 60.000000 0.000000 
90.625000 60.000000 0.000000 
93.750000 60.000000 0.000000 
96.875000 60.000000 0.000000 
100.000000 60.000000 0.000000 
0.000000 80.000000 0.000000 
3.125000 80.000000 0.000000 
6.250000 80.000000 0.000000 
9.375000 80.000000 0.000000 
12.500000 80.000000 0.000000 
15.625000 80.000000 0.000000 
18.750000 80.000000 0.000000 
21.875000 80.000000 0.000000 
25.000000 80.000000 0.000000 
28.125000 80.000000 0.000000 
31.250000 80.000000 0.000000 
34.375000 80.000000 0.000000 
37.500000 80.000000 0.000000 
40.625000 80.000000 0.000000 
43.750000 80.000000 0.000000 
46.875000 80.000000 0.000000 
50.000000 80.000000 0.000000 
53.125000 80.000000 0.000000 
56.250000 80.000000 0.000000 
59.375000 80.000000 0.000000 
62.500000 80.000000 0.000000 
65.625000 80.000000 0.000000 
68.750000 80.000000 0.000000 
71.875000 80.000000 0.000000 
75.000000 80.000000 0.000000 
78.125000 80.000000 0.000000 
81.250000 80.000000 0.000000 
84.375000 80.000000 0.000000 
87.500000 80.000000 0.000000 
90.625000 80.000000 0.000000 
93.750000 80.000000 0.000000 
96.875000 80.000000 0.000000 
100.000000 80.000000 0.000000 
0.000000 0.000000 2.000000 
3.125000 0.000000 2.000000 
6.250000 0.000000 2.000000 
9.375000 0.000000 2.000000 
12.500000 0.000000 2.000000 
15.625000 0.000000 2.000000 
18.750000 0.000000 2.000000 
21.875000 0.000000 2.000000 
25.000000 0.000000 2.000000 
28.125000 0.000000 2.000000 
31.250000 0.000000 2.000000 
34.375000 0.000000 2.000000 
37.500000 0.000000 2.000000 
40.625000 0.000000 2.000000 
43.750000 0.000000 2.000000 
46.875000 0.000000 2.000000 
50.000000 0.000000 2.000000 
53.125000 0.000000 2.000000 
56.250000 0.000000 2.000000 
59.375000 0.000000 2.000000 
62.500000 0.000000 2.000000 
65.625000 0.000000 2.000000 
68.750000 0.000000 2.000000 
71.875000 0.000000 2.000000 
75.000000 0.000000 2.000000 
78.125000 0.000000 2.000000 
81.250000 0.000000 2.000000 
84.375000 0.000000 2.000000 
87.500000 0.000000 2.000000 
90.625000 0.000000 2.000000 
93.750000 0.000000 2.000000 
96.875000 0.000000 2.000000 
100.000000 0.000000 2.000000 
0.000000 20.000000 2.000000 
3.125000 20.000000 2.000000 
6.250000 20.000000 2.000000 
9.375000 20.000000 2.000000 
12.500000 20.000000 2.000000 
15.625000 20.000000 2.000000 
18.750000 20.000000 2.000000 
21.875000 20.000000 2.000000 
25.000000 20.000000 2.000000 
28.125000 20.000000 2.000000 
31.250000 20.000000 2.000000 
34.375000 20.000000 2.000000 
37.500000 20.000000 2.000000 
40.625000 20.000000 2.000000 
43.750000 20.000000 2.000000 
46.875000 20.000000 2.000000 
50.000000 20.000000 2.000000 
53.125000 20.000000 2.000000 
56.250000 20.000000 2.000000 
59.375000 20.000000 2.000000 
62.500000 20.000000 2.000000 
65.625000 20.000000 2.000000 
68.750000 20.000000 2.000000 
71.875000 20.000000 2.000000 
75.000000 20.000000 2.000000 
78.125000 20.000000 2.000000 
81.250000 20.000000 2.000000 
84.375000 20.000000 2.000000 
87.500000 20.000000 2.000000 
90.625000 20.000000 2.000000 
93.750000 20.000000 2.000000 
96.875000 20.000000 2.000000 
100.000000 20.000000 2.000000 
0.000000 40.000000 2.000000 
3.125000 40.000000 2.000000 
6.250000 40.000000 2.000000 
9.375000 40.000000 2.000000 
12.500000 40.000000 2.000000 
15.625000 40.000000 2.000000 
18.750000 40.000000 2.000000 
21.875000 40.000000 2.000000 
25.000000 40.000000 2.000000 
28.125000 40.000000 2.000000 
31.250000 40.000000 2.000000 
34.375000 40.000000 2.000000 
37.500000 40.000000 2.000000 
40.625000 40.000000 2.000000 
43.750000 40.000000 2.000000 
46.875000 40.000000 2.000000 
50.000000 40.000000 2.000000 
53.125000 40.000000 2.000000 
56.250000 40.000000 2.000000 
59.375000 40.000000 2.000000 
62.500000 40.000000 2.000000 
65.625000 40.000000 2.000000 
68.750000 40.000000 2.000000 
71.875000 40.000000 2.000000 
75.000000 40.000000 2.000000 
78.125000 40.000000 2.000000 
81.250000 40.000000 2.000000 
84.375000 40.000000 2.000000 
87.500000 40.000000 2.000000 
90.625000 40.000000 2.000000 
93.750000 40.000000 2.000000 
96.875000 40.000000 2.000000 
100.000000 40.000000 2.000000 
0.000000 60.000000 2.000000 
3.125000 60.000000 2.000000 
6.250000 60.000000 2.000000 
9.375000 60.000000 2.000000 
12.500000 60.000000 2.000000 
15.625000 60.000000 2.000000 
18.750000 60.000000 2.000000 
21.875000 60.000000 2.000000 
25.000000 60.000000 2.000000 
28.125000 60.000000 2.000000 
31.250000 60.000000 2.000000 
34.375000 60.000000 2.000000 
37.500000 60.000000 2.000000 
40.625000 60.000000 2.000000 
43.750000 60.000000 2.000000 
46.875000 60.000000 2.000000 
50.000000 60.000000 2.000000 
53.125000 60.000000 2.000000 
56.250000 60.000000 2.000000 
59.375000 60.000000 2.000000 
62.500000 60.000000 2.000000 
65.625000 60.000000 2.000000 
68.750000 60.000000 2.000000 
71.875000 60.000000 2.000000 
75.000000 60.000000 2.000000 
78.125000 60.000000 2.000000 
81.250000 60.000000 2.000000 
84.375000 60.000000 2.000000 
87.500000 60.000000 2.000000 
90.625000 60.000000 2.000000 
93.750000 60.000000 2.000000 
96.875000 60.000000 2.000000 
100.000000 60.000000 2.000000 
0.000000 80.000000 2.000000 
3.125000 80.000000 2.000000 
6.250000 80.000000 2.000000 
9.375000 80.000000 2.000000 
12.500000 80.000000 2.000000 
15.625000 80.000000 2.000000 
18.750000 80.000000 2.000000 
21.875000 80.000000 2.000000 
25.000000 80.000000 2.000000 
28.125000 80.000000 2.000000 
31.250000 80.000000 2.000000 
34.375000 80.000000 2.000000 
37.500000 80.000000 2.000000 
40.625000 80.000000 2.000000 
43.750000 80.000000 2.000000 
46.875000 80.000000 2.000000 
50.000000 80.000000 2.000000 
53.125000 80.000000 2.000000 
56.250000 80.000000 2.000000 
59.375000 80.000000 2.000000 
62.500000 80.000000 2.000000 
65.625000 80.000000 2.000000 
68.750000 80.000000 2.000000 
71.875000 80.000000 2.000000 
75.000000 80.000000 2.000000 
78.125000 80.000000 2.000000 
81.250000 80.000000 2.000000 
84.375000 80.000000 2.000000 
87.500000 80.000000 2.000000 
90.625000 80.000000 2.000000 
93.750000 80.000000 2.000000 
96.875000 80.000000 2.000000 
[...]
<PointData  Vectors="sigma"> 
<DataArray  type="Float64"  Name="sigma" NumberOfComponents="7" format="ascii"> 
-45.557198   -19.524514   -19.524514   -9.705434   0.000000   -3.766915   0.000000   
-37.735192   -7.912637   1.030460   -8.493048   0.767736   0.227345   0.000000   
-42.335591   -8.651704   -2.272289   -6.088517   1.135228   1.381953   0.000000   
-44.590600   -8.366039   -2.410639   -4.807140   1.428102   0.889359   0.000000   
-45.616934   -8.098619   -2.685273   -3.967981   1.585804   0.702713   0.000000   
-45.886358   -7.706277   -2.634503   -3.364665   1.685576   0.544475   0.000000   
-45.892512   -7.358406   -2.573458   -2.884755   1.751013   0.430169   0.000000   
-45.722086   -7.040739   -2.501948   -2.476294   1.795620   0.335426   0.000000   
-45.426670   -6.748588   -2.430868   -2.114419   1.826413   0.256031   0.000000   
-45.040256   -6.477537   -2.360866   -1.787392   1.847592   0.188458   0.000000   
-44.590461   -6.226281   -2.293298   -1.489357   1.861704   0.130566   0.000000   
-44.098481   -5.994313   -2.228939   -1.217011   1.870337   0.080647   0.000000   
-43.580223   -5.781336   -2.168319   -0.968059   1.874506   0.037340   0.000000   
-43.047308   -5.586969   -2.111731   -0.740531   1.874885   -0.000475   0.000000   
-42.508023   -5.410693   -2.059295   -0.532493   1.871936   -0.033730   0.000000   
-41.968123   -5.251874   -2.011009   -0.341944   1.865992   -0.063217   0.000000   
-41.431498   -5.109827   -1.966785   -0.166789   1.857298   -0.089612   0.000000   
-40.900708   -4.983902   -1.926486   -0.004825   1.846028   -0.113506   0.000000   
-40.377421   -4.873580   -1.889954   0.146268   1.832293   -0.135424   0.000000   
-39.862786   -4.778595   -1.857038   0.288979   1.816129   -0.155844   0.000000   
-39.357772   -4.699089   -1.827621   0.426050   1.797463   -0.175223   0.000000   
-38.863480   -4.635825   -1.801653   0.560628   1.776075   -0.194017   0.000000   
-38.381464   -4.590482   -1.779201   0.696484   1.751509   -0.212732   0.000000   
-37.913977   -4.566035   -1.760501   0.838317   1.722957   -0.231994   0.000000   
-37.464044   -4.567256   -1.746057   0.992138   1.689062   -0.252696   0.000000   
-37.034947   -4.601214   -1.736704   1.165652   1.647640   -0.276257   0.000000   
-36.628336   -4.677683   -1.733926   1.368492   1.595253   -0.305340   0.000000   
-36.234780   -4.806518   -1.736929   1.611553   1.526485   -0.345051   0.000000   
-35.801149   -4.987696   -1.739334   1.904892   1.433243   -0.410127   0.000000   
-35.052934   -5.129843   -1.633957   2.235966   1.297055   -0.519962   0.000000   
-33.350216   -5.035011   -1.367302   2.573398   1.128300   -0.756115   0.000000   
-29.924379   -4.324623   -0.404782   2.056096   0.739738   -0.590829   0.000000   
-30.722159   -6.458763   -6.998057   1.167706   2.812788   0.760621   0.000000   
-58.308537   -24.989373   -24.989373   -2.077661   0.000000   -11.013443   0.000000   
-45.787755   -11.775788   -0.036261   -2.549345   0.009686   -2.239967   0.000000   
-45.642691   -11.170953   -2.323955   -2.703716   -0.051522   -0.213270   0.000000   
-45.898432   -10.230747   -1.950389   -2.634050   -0.063407   -0.376252   0.000000   
-45.979448   -9.652872   -2.252997   -2.483227   -0.049338   -0.310340   0.000000   
-45.582165   -8.972799   -2.232597   -2.298020   -0.027146   -0.289555   0.000000   
-45.134241   -8.376131   -2.210900   -2.095524   -0.000627   -0.258047   0.000000   
-44.675808   -7.849290   -2.177884   -1.884545   0.027584   -0.232551   0.000000   
-44.219009   -7.385661   -2.145466   -1.671228   0.055917   -0.210995   0.000000   
-43.761754   -6.975221   -2.113117   -1.460384   0.083215   -0.192922   0.000000   
-43.303071   -6.611155   -2.081465   -1.255828   0.108691   -0.177424   0.000000   
-42.842471   -6.288127   -2.050689   -1.060376   0.131844   -0.163916   0.000000   
-42.379927   -6.001843   -2.020908   -0.875874   0.152395   -0.151978   0.000000   
-41.915597   -5.748678   -1.992146   -0.703299   0.170228   -0.141319   0.000000   
-41.449668   -5.525494   -1.964372   -0.542900   0.185340   -0.131727   0.000000   
-40.982251   -5.329536   -1.937523   -0.394376   0.197804   -0.123044   0.000000   
-40.513302   -5.158373   -1.911516   -0.257030   0.207741   -0.115141   0.000000   
-40.042549   -5.009859   -1.886251   -0.129914   0.215299   -0.107906   0.000000   
-39.569425   -4.882103   -1.861606   -0.011944   0.220644   -0.101237   0.000000   
-39.092962   -4.773440   -1.837431   0.097991   0.223961   -0.095028   0.000000   
-38.611665   -4.682411   -1.813525   0.200947   0.225463   -0.089156   0.000000   
-38.123353   -4.607746   -1.789604   0.297836   0.225419   -0.083456   0.000000   
-37.625002   -4.548368   -1.765251   0.389337   0.224197   -0.077676   0.000000   
-37.112627   -4.503449   -1.739842   0.475783   0.222344   -0.071402   0.000000   
-36.581381   -4.472577   -1.712456   0.557007   0.220714   -0.063935   0.000000   
-36.026113   -4.456108   -1.681719   0.632132   0.220676   -0.054077   0.000000   
-35.442790   -4.455879   -1.645739   0.699294   0.224443   -0.039981   0.000000   
-34.827106   -4.474131   -1.598750   0.755385   0.235627   -0.018791   0.000000   
-34.161242   -4.508408   -1.526736   0.795780   0.260034   0.010490   0.000000   
-33.329711   -4.506107   -1.340440   0.818609   0.309198   0.061477   0.000000   
-32.390863   -4.520484   -1.149290   0.819490   0.392777   0.151262   0.000000   
-32.131935   -4.779667   -0.918209   0.999720   0.586844   1.174372   0.000000   
-35.206410   -7.819989   -7.507966   1.169395   0.190313   4.639206   0.000000   
-65.623285   -28.124265   -28.124265   0.000000   0.000000   -12.337061   0.000000   
-50.614200   -14.218229   0.406606   0.000000   -0.000000   -2.399439   0.000000   
-48.692128   -13.521610   -2.071311   0.000000   -0.000000   -0.126160   0.000000   
-47.741588   -12.254463   -1.484843   0.000000   -0.000000   -0.389421   0.000000   
-46.914191   -11.354854   -1.740923   0.000000   -0.000000   -0.350198   0.000000   
-45.792709   -10.345206   -1.668904   0.000000   -0.000000   -0.341417   0.000000   
-44.817494   -9.460459   -1.628824   0.000000   -0.000000   -0.307864   0.000000   
-43.991869   -8.689384   -1.596623   0.000000   -0.000000   -0.275243   0.000000   
-43.295343   -8.023340   -1.578091   0.000000   -0.000000   -0.244910   0.000000   
-42.696026   -7.447278   -1.567170   0.000000   -0.000000   -0.218463   0.000000   
-42.167664   -6.948997   -1.560873   0.000000   -0.000000   -0.195903   0.000000   
-41.688895   -6.518004   -1.556882   0.000000   -0.000000   -0.176941   0.000000   
-41.243125   -6.145446   -1.553659   0.000000   -0.000000   -0.161108   0.000000   
-40.817868   -5.823865   -1.550172   0.000000   -0.000000   -0.147900   0.000000   
-40.404084   -5.547020   -1.545766   0.000000   -0.000000   -0.136831   0.000000   
-39.995531   -5.309750   -1.540059   0.000000   -0.000000   -0.127457   0.000000   
-39.588219   -5.107841   -1.532873   0.000000   -0.000000   -0.119391   0.000000   
-39.179979   -4.937942   -1.524181   0.000000   -0.000000   -0.112297   0.000000   
-38.770169   -4.797493   -1.514080   0.000000   0.000000   -0.105889   0.000000   
-38.359509   -4.684686   -1.502793   0.000000   -0.000000   -0.099932   0.000000   
-37.950023   -4.598449   -1.490683   0.000000   0.000000   -0.094246   0.000000   
-37.545085   -4.538448   -1.478301   0.000000   -0.000000   -0.088728   0.000000   
-37.149503   -4.505095   -1.466472   0.000000   0.000000   -0.083395   0.000000   
-36.769565   -4.499520   -1.456415   0.000000   0.000000   -0.078479   0.000000   
-36.412846   -4.523462   -1.449936   0.000000   0.000000   -0.074589   0.000000   
-36.087350   -4.578896   -1.449641   0.000000   0.000000   -0.073028   0.000000   
-35.799206   -4.667235   -1.459455   0.000000   0.000000   -0.076550   0.000000   
-35.542919   -4.785217   -1.481992   0.000000   0.000000   -0.090570   0.000000   
-35.270605   -4.914567   -1.516360   0.000000   0.000000   -0.130193   0.000000   
-34.724755   -4.943672   -1.466329   0.000000   0.000000   -0.214187   0.000000   
-33.350767   -4.696961   -1.315370   0.000000   0.000000   -0.423594   0.000000   
-30.383767   -3.767609   -0.497019   0.000000   -0.000000   -0.194207   0.000000   
-31.672756   -6.531613   -7.203771   0.000000   0.000000   1.540067   0.000000   
-58.308537   -24.989373   -24.989373   2.077661   0.000000   -11.013443   0.000000   
-45.787755   -11.775788   -0.036261   2.549345   -0.009686   -2.239967   0.000000   
-45.642691   -11.170953   -2.323955   2.703716   0.051522   -0.213270   0.000000   
-45.898432   -10.230747   -1.950389   2.634050   0.063407   -0.376252   0.000000   
-45.979448   -9.652872   -2.252997   2.483227   0.049338   -0.310340   0.000000   
-45.582165   -8.972799   -2.232597   2.298020   0.027146   -0.289555   0.000000   
-45.134241   -8.376131   -2.210900   2.095524   0.000627   -0.258047   0.000000   
-44.675808   -7.849290   -2.177884   1.884545   -0.027584   -0.232551   0.000000   
-44.219009   -7.385661   -2.145466   1.671228   -0.055917   -0.210995   0.000000   
-43.761754   -6.975221   -2.113117   1.460384   -0.083215   -0.192922   0.000000   
-43.303071   -6.611155   -2.081465   1.255828   -0.108691   -0.177424   0.000000   
-42.842471   -6.288127   -2.050689   1.060376   -0.131844   -0.163916   0.000000   
-42.379927   -6.001843   -2.020908   0.875874   -0.152395   -0.151978   0.000000   
-41.915597   -5.748678   -1.992146   0.703299   -0.170228   -0.141319   0.000000   
-41.449668   -5.525494   -1.964372   0.542900   -0.185340   -0.131727   0.000000   
-40.982251   -5.329536   -1.937523   0.394376   -0.197804   -0.123044   0.000000   
-40.513302   -5.158373   -1.911516   0.257030   -0.207741   -0.115141   0.000000   
-40.042549   -5.009859   -1.886251   0.129914   -0.215299   -0.107906   0.000000   
-39.569425   -4.882103   -1.861606   0.011944   -0.220644   -0.101237   0.000000   
-39.092962   -4.773440   -1.837431   -0.097991   -0.223961   -0.095028   0.000000   
-38.611665   -4.682411   -1.813525   -0.200947   -0.225463   -0.089156   0.000000   
-38.123353   -4.607746   -1.789604   -0.297836   -0.225419   -0.083456   0.000000   
-37.625002   -4.548368   -1.765251   -0.389337   -0.224197   -0.077676   0.000000   
-37.112627   -4.503449   -1.739842   -0.475783   -0.222344   -0.071402   0.000000   
-36.581381   -4.472577   -1.712456   -0.557007   -0.220714   -0.063935   0.000000   
-36.026113   -4.456108   -1.681719   -0.632132   -0.220676   -0.054077   0.000000   
-35.442790   -4.455879   -1.645739   -0.699294   -0.224443   -0.039981   0.000000   
-34.827106   -4.474131   -1.598750   -0.755385   -0.235627   -0.018791   0.000000   
-34.161242   -4.508408   -1.526736   -0.795780   -0.260034   0.010490   0.000000   
-33.329711   -4.506107   -1.340440   -0.818609   -0.309198   0.061477   0.000000   
-32.390863   -4.520484   -1.149290   -0.819490   -0.392777   0.151262   0.000000   
-32.131935   -4.779667   -0.918209   -0.999720   -0.586844   1.174372   0.000000   
-35.206410   -7.819989   -7.507966   -1.169395   -0.190313   4.639206   0.000000   
-45.557198   -19.524514   -19.524514   9.705434   0.000000   -3.766915   0.000000   
-37.735192   -7.912637   1.030460   8.493048   -0.767736   0.227345   0.000000   
-42.335591   -8.651704   -2.272289   6.088517   -1.135228   1.381953   0.000000   
-44.590600   -8.366039   -2.410639   4.807140   -1.428102   0.889359   0.000000   
-45.616934   -8.098619   -2.685273   3.967981   -1.585804   0.702713   0.000000   
-45.886358   -7.706277   -2.634503   3.364665   -1.685576   0.544475   0.000000   
-45.892512   -7.358406   -2.573458   2.884755   -1.751013   0.430169   0.000000   
-45.722086   -7.040739   -2.501948   2.476294   -1.795620   0.335426   0.000000   
-45.426670   -6.748588   -2.430868   2.114419   -1.826413   0.256031   0.000000   
-45.040256   -6.477537   -2.360866   1.787392   -1.847592   0.188458   0.000000   
-44.590461   -6.226281   -2.293298   1.489357   -1.861704   0.130566   0.000000   
-44.098481   -5.994313   -2.228939   1.217011   -1.870337   0.080647   0.000000   
-43.580223   -5.781336   -2.168319   0.968059   -1.874506   0.037340   0.000000   
-43.047308   -5.586969   -2.111731   0.740531   -1.874885   -0.000475   0.000000   
-42.508023   -5.410693   -2.059295   0.532493   -1.871936   -0.033730   0.000000   
-41.968123   -5.251874   -2.011009   0.341944   -1.865992   -0.063217   0.000000   
-41.431498   -5.109827   -1.966785   0.166789   -1.857298   -0.089612   0.000000   
-40.900708   -4.983902   -1.926486   0.004825   -1.846028   -0.113506   0.000000   
-40.377421   -4.873580   -1.889954   -0.146268   -1.832293   -0.135424   0.000000   
-39.862786   -4.778595   -1.857038   -0.288979   -1.816129   -0.155844   0.000000   
-39.357772   -4.699089   -1.827621   -0.426050   -1.797463   -0.175223   0.000000   
-38.863480   -4.635825   -1.801653   -0.560628   -1.776075   -0.194017   0.000000   
-38.381464   -4.590482   -1.779201   -0.696484   -1.751509   -0.212732   0.000000   
-37.913977   -4.566035   -1.760501   -0.838317   -1.722957   -0.231994   0.000000   
-37.464044   -4.567256   -1.746057   -0.992138   -1.689062   -0.252696   0.000000   
-37.034947   -4.601214   -1.736704   -1.165652   -1.647640   -0.276257   0.000000   
-36.628336   -4.677683   -1.733926   -1.368492   -1.595253   -0.305340   0.000000   
-36.234780   -4.806518   -1.736929   -1.611553   -1.526485   -0.345051   0.000000   
-35.801149   -4.987696   -1.739334   -1.904892   -1.433243   -0.410127   0.000000   
-35.052934   -5.129843   -1.633957   -2.235966   -1.297055   -0.519962   0.000000   
-33.350216   -5.035011   -1.367302   -2.573398   -1.128300   -0.756115   0.000000   
-29.924379   -4.324623   -0.404782   -2.056096   -0.739738   -0.590829   0.000000   
-30.722159   -6.458763   -6.998057   -1.167706   -2.812788   0.760621   0.000000   
-38.016766   -16.292900   -16.292900   -8.489430   0.000000   -0.142347   0.000000   
-32.390085   -6.993069   -0.191415   -6.939487   1.402939   2.153885   0.000000   
-34.620774   -6.539535   -1.094822   -4.684968   1.933609   2.318733   0.000000   
-34.740431   -5.698516   -0.911370   -3.591340   2.250885   1.939975   0.000000   
-35.253269   -5.359287   -1.064632   -2.937411   2.412788   1.486675   0.000000   
-35.560920   -5.085549   -1.085520   -2.476227   2.495753   1.154794   0.000000   
-35.675270   -4.849080   -1.076262   -2.119027   2.536621   0.893530   0.000000   
-35.629181   -4.630047   -1.049446   -1.819242   2.555401   0.680394   0.000000   
-35.466099   -4.425877   -1.017595   -1.554897   2.561992   0.502340   0.000000   
-35.217827   -4.235041   -0.984020   -1.315724   2.561447   0.352221   0.000000   
-34.909084   -4.057372   -0.950513   -1.096960   2.556352   0.224813   0.000000   
-34.558693   -3.893011   -0.918019   -0.896189   2.548038   0.116020   0.000000   
-34.180805   -3.742088   -0.887142   -0.711898   2.537181   0.022517   0.000000   
-33.785835   -3.604567   -0.858254   -0.542842   2.524127   -0.058422   0.000000   
-33.381283   -3.480229   -0.831571   -0.387778   2.509052   -0.129048   0.000000   
-32.972434   -3.368716   -0.807194   -0.245373   2.492051   -0.191239   0.000000   
-32.562924   -3.269600   -0.785146   -0.114182   2.473171   -0.246579   0.000000   
-32.155204   -3.182450   -0.765396   0.007354   2.452429   -0.296418   0.000000   
-31.750899   -3.106920   -0.747880   0.120908   2.429803   -0.341929   0.000000   
-31.351105   -3.042831   -0.732519   0.228298   2.405218   -0.384148   0.000000   
-30.956628   -2.990273   -0.719234   0.331535   2.378516   -0.424027   0.000000   
-30.568169   -2.949735   -0.707947   0.432909   2.349415   -0.462492   0.000000   
-30.186433   -2.922250   -0.698582   0.535115   2.317453   -0.500534   0.000000   
-29.812079   -2.909549   -0.691025   0.641394   2.281922   -0.539384   0.000000   
-29.445290   -2.914170   -0.685023   0.755667   2.241784   -0.580848   0.000000   
-29.084428   -2.939298   -0.679828   0.882545   2.195599   -0.628011   0.000000   
-28.722718   -2.987932   -0.673311   1.026953   2.141478   -0.686809   0.000000   
-28.340332   -3.059782   -0.658308   1.192642   2.077079   -0.770099   0.000000   
-27.897137   -3.147996   -0.619648   1.376396   2.000193   -0.905520   0.000000   
-27.330271   -3.228912   -0.514794   1.556648   1.909269   -1.148003   0.000000   
-26.688401   -3.346798   -0.449623   1.631072   1.836237   -1.495212   0.000000   
-25.206136   -3.202047   -0.443132   1.637715   1.822518   -1.713260   0.000000   
-27.212209   -6.308643   -7.656541   1.598437   3.357712   -0.425293   0.000000   
-40.200265   -17.228685   -17.228685   -1.642955   0.000000   -6.771523   0.000000   
-35.416053   -9.080142   -0.599140   -1.868056   0.097083   -2.082486   0.000000   
-38.078728   -9.125166   -1.603713   -2.014958   0.046497   -1.218971   0.000000   
-37.136591   -7.956965   -1.108212   -1.951696   0.027663   -0.838156   0.000000   
-36.697113   -7.289534   -1.186109   -1.836078   0.016642   -0.761866   0.000000   
-36.289254   -6.724688   -1.184901   -1.700076   0.009625   -0.685678   0.000000   
-35.902653   -6.246481   -1.178412   -1.554221   0.006160   -0.618074   0.000000   
-35.519135   -5.828153   -1.161625   -1.403039   0.006647   -0.559925   0.000000   
-35.141466   -5.461252   -1.143400   -1.249639   0.010896   -0.511826   0.000000   
-34.767666   -5.137835   -1.125051   -1.096882   0.018215   -0.471594   0.000000   
-34.395870   -4.852049   -1.107235   -0.947386   0.027687   -0.437304   0.000000   
-34.024676   -4.599308   -1.090085   -0.803319   0.038394   -0.407511   0.000000   
-33.653316   -4.375966   -1.073631   -0.666266   0.049534   -0.381228   0.000000   
-33.281432   -4.179012   -1.057845   -0.537202   0.060471   -0.357777   0.000000   
-32.908873   -4.005886   -1.042680   -0.416561   0.070734   -0.336682   0.000000   
-32.535552   -3.854374   -1.028079   -0.304330   0.080004   -0.317595   0.000000   
-32.161331   -3.722539   -1.013979   -0.200164   0.088082   -0.300242   0.000000   
-31.785951   -3.608687   -1.000313   -0.103490   0.094871   -0.284400   0.000000   
-31.408958   -3.511335   -0.987004   -0.013603   0.100348   -0.269867   0.000000   
-31.029640   -3.429201   -0.973962   0.070261   0.104557   -0.256446   0.000000   
-30.646957   -3.361191   -0.961073   0.148850   0.107594   -0.243911   0.000000   
-30.259493   -3.306411   -0.948184   0.222838   0.109618   -0.231950   0.000000   
-29.865450   -3.264206   -0.935088   0.292765   0.110861   -0.220065   0.000000   
-29.462789   -3.234266   -0.921486   0.358961   0.111671   -0.207390   0.000000   
-29.049638   -3.216832   -0.906941   0.421457   0.112580   -0.192382   0.000000   
-28.625216   -3.213056   -0.890734   0.479866   0.114428   -0.172325   0.000000   
-28.191807   -3.225637   -0.871532   0.533241   0.118577   -0.142677   0.000000   
-27.759035   -3.259667   -0.845701   0.580011   0.127299   -0.096658   0.000000   
-27.363218   -3.329152   -0.810353   0.618737   0.144379   -0.022800   0.000000   
-27.112351   -3.469626   -0.765982   0.649972   0.176764   0.110190   0.000000   
-27.296209   -3.822063   -0.897718   0.693340   0.230008   0.480760   0.000000   
-26.905674   -4.041654   -1.167766   0.733867   0.319034   1.594383   0.000000   
-29.218246   -7.082370   -8.057065   0.744733   0.057252   4.657069   0.000000   
-45.394656   -19.454852   -19.454852   0.000000   0.000000   -7.449348   0.000000   
-39.212719   -11.209123   -0.375858   0.000000   -0.000000   -2.174863   0.000000   
-40.595163   -11.176951   -1.274638   0.000000   -0.000000   -1.324761   0.000000   
-38.556283   -9.707397   -0.588133   0.000000   -0.000000   -1.006855   0.000000   
-37.423925   -8.802926   -0.635102   0.000000   -0.000000   -0.977656   0.000000   
-36.501750   -8.009816   -0.620079   0.000000   -0.000000   -0.902781   0.000000   