<VTKFile type="UnstructuredGrid"  version="0.1"   > 
<UnstructuredGrid> 
<Piece  NumberOfPoints="  243" NumberOfCells=" 128"> 
<Points> 
<DataArray  type="Float64"  NumberOfComponents="3"  format="ascii" > 
207.500000 157.500000 -10.000000 
218.125000 157.500000 -10.000000 
228.750000 157.500000 -10.000000 
239.375000 157.500000 -10.000000 
250.000000 157.500000 -10.000000 
260.625000 157.500000 -10.000000 
271.250000 157.500000 -10.000000 
281.875000 157.500000 -10.000000 
292.500000 157.500000 -10.000000 
207.500000 168.125000 -10.000000 
218.125000 168.125000 -10.000000 
228.750000 168.125000 -10.000000 
239.375000 168.125000 -10.000000 
250.000000 168.125000 -10.000000 
260.625000 168.125000 -10.000000 
271.250000 168.125000 -10.000000 
281.875000 168.125000 -10.000000 
292.500000 168.125000 -10.000000 
207.500000 178.750000 -10.000000 
218.125000 178.750000 -10.000000 
228.750000 178.750000 -10.000000 
239.375000 178.750000 -10.000000 
250.000000 178.750000 -10.000000 
260.625000 178.750000 -10.000000 
271.250000 178.750000 -10.000000 
281.875000 178.750000 -10.000000 
292.500000 178.750000 -10.000000 
207.500000 189.375000 -10.000000 
218.125000 189.375000 -10.000000 
228.750000 189.375000 -10.000000 
239.375000 189.375000 -10.000000 
250.000000 189.375000 -10.000000 
260.625000 189.375000 -10.000000 
271.250000 189.375000 -10.000000 
281.875000 189.375000 -10.000000 
292.500000 189.375000 -10.000000 
207.500000 200.000000 -10.000000 
218.125000 200.000000 -10.000000 
228.750000 200.000000 -10.000000 
239.375000 200.000000 -10.000000 
250.000000 200.000000 -10.000000 
260.625000 200.000000 -10.000000 
271.250000 200.000000 -10.000000 
281.875000 200.000000 -10.000000 
292.500000 200.000000 -10.000000 
207.500000 210.625000 -10.000000 
218.125000 210.625000 -10.000000 
228.750000 210.625000 -10.000000 
239.375000 210.625000 -10.000000 
250.000000 210.625000 -10.000000 
260.625000 210.625000 -10.000000 
271.250000 210.625000 -10.000000 
281.875000 210.625000 -10.000000 
292.500000 210.625000 -10.000000 
207.500000 221.250000 -10.000000 
218.125000 221.250000 -10.000000 
228.750000 221.250000 -10.000000 
239.375000 221.250000 -10.000000 
250.000000 221.250000 -10.000000 
260.625000 221.250000 -10.000000 
271.250000 221.250000 -10.000000 
281.875000 221.250000 -10.000000 
292.500000 221.250000 -10.000000 
207.500000 231.875000 -10.000000 
218.125000 231.875000 -10.000000 
228.750000 231.875000 -10.000000 
239.375000 231.875000 -10.000000 
250.000000 231.875000 -10.000000 
260.625000 231.875000 -10.000000 
271.250000 231.875000 -10.000000 
281.875000 231.875000 -10.000000 
292.500000 231.875000 -10.000000 
207.500000 242.500000 -10.000000 
218.125000 242.500000 -10.000000 
228.750000 242.500000 -10.000000 
239.375000 242.500000 -10.000000 
250.000000 242.500000 -10.000000 
260.625000 242.500000 -10.000000 
271.250000 242.500000 -10.000000 
281.875000 242.500000 -10.000000 
292.500000 242.500000 -10.000000 
207.500000 157.500000 -0.000000 
218.125000 157.500000 -0.000000 
228.750000 157.500000 -0.000000 
239.375000 157.500000 -0.000000 
250.000000 157.500000 -0.000000 
260.625000 157.500000 -0.000000 
271.250000 157.500000 -0.000000 
281.875000 157.500000 -0.000000 
292.500000 157.500000 -0.000000 
207.500000 168.125000 -0.000000 
218.125000 168.125000 -0.000000 
228.750000 168.125000 -0.000000 
239.375000 168.125000 -0.000000 
250.000000 168.125000 -0.000000 
260.625000 168.125000 -0.000000 
271.250000 168.125000 -0.000000 
281.875000 168.125000 -0.000000 
292.500000 168.125000 -0.000000 
207.500000 178.750000 -0.000000 
218.125000 178.750000 -0.000000 
228.750000 178.750000 -0.000000 
239.375000 178.750000 -0.000000 
250.000000 178.750000 -0.000000 
260.625000 178.750000 -0.000000 
271.250000 178.750000 -0.000000 
281.875000 178.750000 -0.000000 
292.500000 178.750000 -0.000000 
207.500000 189.375000 -0.000000 
218.125000 189.375000 -0.000000 
228.750000 189.375000 -0.000000 
239.375000 189.375000 -0.000000 
250.000000 189.375000 -0.000000 
260.625000 189.375000 -0.000000 
271.250000 189.375000 -0.000000 
281.875000 189.375000 -0.000000 
292.500000 189.375000 -0.000000 
207.500000 200.000000 -0.000000 
218.125000 200.000000 -0.000000 
228.750000 200.000000 -0.000000 
239.375000 200.000000 -0.000000 
250.000000 200.000000 -0.000000 
260.625000 200.000000 -0.000000 
271.250000 200.000000 -0.000000 
281.875000 200.000000 -0.000000 
292.500000 200.000000 -0.000000 
207.500000 210.625000 -0.000000 
218.125000 210.625000 -0.000000 
228.750000 210.625000 -0.000000 
239.375000 210.625000 -0.000000 
250.000000 210.625000 -0.000000 
260.625000 210.625000 -0.000000 
271.250000 210.625000 -0.000000 
281.875000 210.625000 -0.000000 
292.500000 210.625000 -0.000000 
207.500000 221.250000 -0.000000 
218.125000 221.250000 -0.000000 
228.750000 221.250000 -0.000000 
239.375000 221.250000 -0.000000 
250.000000 221.250000 -0.000000 
260.625000 221.250000 -0.000000 
271.250000 221.250000 -0.000000 
281.875000 221.250000 -0.000000 
292.500000 221.250000 -0.000000 
207.500000 231.875000 -0.000000 
218.125000 231.875000 -0.000000 
228.750000 231.875000 -0.000000 
239.375000 231.875000 -0.000000 
250.000000 231.875000 -0.000000 
260.625000 231.875000 -0.000000 
271.250000 231.875000 -0.000000 
281.875000 231.875000 -0.000000 
292.500000 231.875000 -0.000000 
207.500000 242.500000 -0.000000 
218.125000 242.500000 -0.000000 
228.750000 242.500000 -0.000000 
239.375000 242.500000 -0.000000 
250.000000 242.500000 -0.000000 
260.625000 242.500000 -0.000000 
271.250000 242.500000 -0.000000 
281.875000 242.500000 -0.000000 
292.500000 242.500000 -0.000000 
207.500000 157.500000 10.000000 
218.125000 157.500000 10.000000 
228.750000 157.500000 10.000000 
239.375000 157.500000 10.000000 
250.000000 157.500000 10.000000 
260.625000 157.500000 10.000000 
271.250000 157.500000 10.000000 
281.875000 157.500000 10.000000 
292.500000 157.500000 10.000000 
207.500000 168.125000 10.000000 
218.125000 168.125000 10.000000 
228.750000 168.125000 10.000000 
239.375000 168.125000 10.000000 
250.000000 168.125000 10.000000 
260.625000 168.125000 10.000000 
271.250000 168.125000 10.000000 
281.875000 168.125000 10.000000 
292.500000 168.125000 10.000000 
207.500000 178.750000 10.000000 
218.125000 178.750000 10.000000 
228.750000 178.750000 10.000000 
239.375000 178.750000 10.000000 
250.000000 178.750000 10.000000 
260.625000 178.750000 10.000000 
271.250000 178.750000 10.000000 
281.875000 178.750000 10.000000 
292.500000 178.750000 10.000000 
207.500000 189.375000 10.000000 
218.125000 189.375000 10.000000 
228.750000 189.375000 10.000000 
239.375000 189.375000 10.000000 
250.000000 189.375000 10.000000 
260.625000 189.375000 10.000000 
271.250000 189.375000 10.000000 
281.875000 189.375000 10.000000 
292.500000 189.375000 10.000000 
207.500000 200.000000 10.000000 
218.125000 200.000000 10.000000 
228.750000 200.000000 10.000000 
239.375000 200.000000 10.000000 
250.000000 200.000000 10.000000 
260.625000 200.000000 10.000000 
271.250000 200.000000 10.000000 
281.875000 200.000000 10.000000 
292.500000 200.000000 10.000000 
207.500000 210.625000 10.000000 
218.125000 210.625000 10.000000 
228.750000 210.625000 10.000000 
239.375000 210.625000 10.000000 
250.000000 210.625000 10.000000 
260.625000 210.625000 10.000000 
271.250000 210.625000 10.000000 
281.875000 210.625000 10.000000 
292.500000 210.625000 10.000000 
207.500000 221.250000 10.000000 
218.125000 221.250000 10.000000 
228.750000 221.250000 10.000000 
239.375000 221.250000 10.000000 
250.000000 221.250000 10.000000 
260.625000 221.250000 10.000000 
271.250000 221.250000 10.000000 
281.875000 221.250000 10.000000 
292.500000 221.250000 10.000000 
207.500000 231.875000 10.000000 
218.125000 231.875000 10.000000 
228.750000 231.875000 10.000000 
239.375000 231.875000 10.000000 
250.000000 231.875000 10.000000 
260.625000 231.875000 10.000000 
271.250000 231.875000 10.000000 
281.875000 231.875000 10.000000 
292.500000 231.875000 10.000000 
207.500000 242.500000 10.000000 
218.125000 242.500000 10.000000 
228.750000 242.500000 10.000000 
239.375000 242.500000 10.000000 
250.000000 242.500000 10.000000 
260.625000 242.500000 10.000000 
271.250000 242.500000 10.000000 
281.875000 242.500000 10.000000 
292.500000 242.500000 10.000000 
</DataArray> 
</Points> 
<Cells> 
<DataArray  type="Int32"  Name="connectivity"  format="ascii"> 
0 1 10 9 81 82 91 90 
1 2 11 10 82 83 92 91 
2 3 12 11 83 84 93 92 
3 4 13 12 84 85 94 93 
4 5 14 13 85 86 95 94 
5 6 15 14 86 87 96 95 
6 7 16 15 87 88 97 96 
7 8 17 16 88 89 98 97 
9 10 19 18 90 91 100 99 
10 11 20 19 91 92 101 100 
11 12 21 20 92 93 102 101 
12 13 22 21 93 94 103 102 
13 14 23 22 94 95 104 103 
14 15 24 23 95 96 105 104 
15 16 25 24 96 97 106 105 
16 17 26 25 97 98 107 106 
18 19 28 27 99 100 109 108 
19 20 29 28 100 101 110 109 
20 21 30 29 101 102 111 110 
21 22 31 30 102 103 112 111 
22 23 32 31 103 104 113 112 
23 24 33 32 104 105 114 113 
24 25 34 33 105 106 115 114 
25 26 35 34 106 107 116 115 
27 28 37 36 108 109 118 117 
28 29 38 37 109 110 119 118 
29 30 39 38 110 111 120 119 
30 31 40 39 111 112 121 120 
31 32 41 40 112 113 122 121 
32 33 42 41 113 114 123 122 
33 34 43 42 114 115 124 123 
34 35 44 43 115 116 125 124 
36 37 46 45 117 118 127 126 
37 38 47 46 118 119 128 127 
38 39 48 47 119 120 129 128 
39 40 49 48 120 121 130 129 
40 41 50 49 121 122 131 130 
41 42 51 50 122 123 132 131 
42 43 52 51 123 124 133 132 
43 44 53 52 124 125 134 133 
45 46 55 54 126 127 136 135 
46 47 56 55 127 128 137 136 
47 48 57 56 128 129 138 137 
48 49 58 57 129 130 139 138 
49 50 59 58 130 131 140 139 
50 51 60 59 131 132 141 140 
51 52 61 60 132 133 142 141 
52 53 62 61 133 134 143 142 
54 55 64 63 135 136 145 144 
55 56 65 64 136 137 146 145 
56 57 66 65 137 138 147 146 
57 58 67 66 138 139 148 147 
58 59 68 67 139 140 149 148 
59 60 69 68 140 141 150 149 
60 61 70 69 141 142 151 150 
61 62 71 70 142 143 152 151 
63 64 73 72 144 145 154 153 
64 65 74 73 145 146 155 154 
65 66 75 74 146 147 156 155 
66 67 76 75 147 148 157 156 
67 68 77 76 148 149 158 157 
68 69 78 77 149 150 159 158 
69 70 79 78 150 151 160 159 
70 71 80 79 151 152 161 160 
81 82 91 90 162 163 172 171 
82 83 92 91 163 164 173 172 
83 84 93 92 164 165 174 173 
84 85 94 93 165 166 175 174 
85 86 95 94 166 167 176 175 
86 87 96 95 167 168 177 176 
87 88 97 96 168 169 178 177 
88 89 98 97 169 170 179 178 
90 91 100 99 171 172 181 180 
91 92 101 100 172 173 182 181 
92 93 102 101 173 174 183 182 
93 94 103 102 174 175 184 183 
94 95 104 103 175 176 185 184 
95 96 105 104 176 177 186 185 
96 97 106 105 177 178 187 186 
97 98 107 106 178 179 188 187 
99 100 109 108 180 181 190 189 
100 101 110 109 181 182 191 190 
101 102 111 110 182 183 192 191 
102 103 112 111 183 184 193 192 
103 104 113 112 184 185 194 193 
104 105 114 113 185 186 195 194 
105 106 115 114 186 187 196 195 
106 107 116 115 187 188 197 196 
108 109 118 117 189 190 199 198 
109 110 119 118 190 191 200 199 
110 111 120 119 191 192 201 200 
111 112 121 120 192 193 202 201 
112 113 122 121 193 194 203 202 
113 114 123 122 194 195 204 203 
114 115 124 123 195 196 205 204 
115 116 125 124 196 197 206 205 
117 118 127 126 198 199 208 207 
118 119 128 127 199 200 209 208 
119 120 129 128 200 201 210 209 
120 121 130 129 201 202 211 210 
121 122 131 130 202 203 212 211 
122 123 132 131 203 204 213 212 
123 124 133 132 204 205 214 213 
124 125 134 133 205 206 215 214 
126 127 136 135 207 208 217 216 
127 128 137 136 208 209 218 217 
128 129 138 137 209 210 219 218 
129 130 139 138 210 211 220 219 
130 131 140 139 211 212 221 220 
131 132 141 140 212 213 222 221 
132 133 142 141 213 214 223 222 
133 134 143 142 214 215 224 223 
135 136 145 144 216 217 226 225 
136 137 146 145 217 218 227 226 
137 138 147 146 218 219 228 227 
138 139 148 147 219 220 229 228 
139 140 149 148 220 221 230 229 
140 141 150 149 221 222 231 230 
141 142 151 150 222 223 232 231 
142 143 152 151 223 224 233 232 
144 145 154 153 225 226 235 234 
145 146 155 154 226 227 236 235 
146 147 156 155 227 228 237 236 
147 148 157 156 228 229 238 237 
148 149 158 157 229 230 239 238 
149 150 159 158 230 231 240 239 
150 151 160 159 231 232 241 240 
151 152 161 160 232 233 242 241 
</DataArray> 
<DataArray  type="Int32"  Name="offsets"  format="ascii"> 
8 
16 
24 
32 
40 
48 
56 
64 
72 
80 
88 
96 
104 
112 
120 
128 
136 
144 
152 
160 
168 
176 
184 
192 
200 
208 
216 
224 
232 
240 
248 
256 
264 
272 
280 
288 
296 
304 
312 
320 
328 
336 
344 
352 
360 
368 
376 
384 
392 
400 
408 
416 
424 
432 
440 
448 
456 
464 
472 
480 
488 
496 
504 
512 
520 
528 
536 
544 
552 
560 
568 
576 
584 
592 
600 
608 
616 
624 
632 
640 
648 
656 
664 
672 
680 
688 
696 
704 
712 
720 
728 
736 
744 
752 
760 
768 
776 
784 
792 
800 
808 
816 
824 
832 
840 
848 
856 
864 
872 
880 
888 
896 
904 
912 
920 
928 
936 
944 
952 
960 
968 
976 
984 
992 
1000 
1008 
1016 
1024 
</DataArray> 
<DataArray  type="UInt8"  Name="types"  format="ascii"> 
12 
12 
12 
12 
12 
12 
12 
12 
12 
12 
12 
12 
12 
12 
12 
12 
12 
12 
12 
12 
12 
12 
12 
12 
12 
12 
12 
12 
12 
12 
12 
12 
12 
12 
12 
12 
12 
12 
12 
12 
12 
12 
12 
12 
12 
12 
12 
12 
12 
12 
12 
12 
12 
12 
12 
12 
12 
12 
12 
12 
12 
12 
12 
12 
12 
12 
12 
12 
12 
12 
12 
12 
12 
12 
12 
12 
12 
12 
12 
12 
12 
12 
12 
12 
12 
12 
12 
12 
12 
12 
12 
12 
12 
12 
12 
12 
12 
12 
12 
12 
12 
12 
12 
12 
12 
12 
12 
12 
12 
12 
12 
12 
12 
12 
12 
12 
12 
12 
12 
12 
12 
12 
12 
12 
12 
12 
12 
12 
</DataArray> 
</Cells> 
<PointData  Vectors="sigma"> 
<DataArray  type="Float64"  Name="sigma" NumberOfComponents="7" format="ascii"> 
670.179284   662.931637   422.204663   39.234369   11.089496   4.276552   254.535878   
610.193002   584.526694   355.296451   28.326817   156.924811   -1.037300   367.933961   
596.841411   572.615550   346.527263   30.339931   161.204023   -0.216167   371.351418   
631.481159   618.044048   372.234994   32.627376   172.147783   -0.371107   394.973717   
639.800012   627.131100   376.777879   30.896498   181.972110   -0.258678   410.139571   
589.613885   577.174252   347.535011   30.278759   161.571748   -0.334574   369.881857   
511.721700   486.889620   296.082991   34.770990   136.746346   -0.128692   318.571391   
449.740121   434.702861   262.750253   40.729933   114.139894   0.070388   276.477952   
404.660839   412.771204   259.013892   67.917535   7.105255   -3.169774   190.997467   
562.021654   592.268330   207.661464   28.522097   -16.760984   69.166171   430.119252   
516.784055   535.976229   100.845436   27.459674   -24.563093   31.604462   458.732186   
470.061071   472.535655   -5.561762   27.024295   -32.775059   -2.816830   482.696517   
465.290492   461.307585   -3.828253   28.962682   -33.616610   0.049555   473.443694   
453.876943   448.145956   -2.842260   32.180182   -33.490513   -0.577135   461.005374   
432.898183   424.661109   -3.566243   36.322433   -31.250968   -1.222896   440.388359   
405.198661   396.060687   -4.184357   41.491810   -27.688137   0.700531   414.218945   
406.068949   401.326873   70.155252   45.592954   -19.087832   -21.668314   362.074935   
421.788354   420.790664   144.727678   46.760817   -12.368603   -46.253688   323.317423   
572.096885   612.373739   197.161661   7.306041   5.426489   77.474830   458.093294   
524.099131   553.201609   89.153644   9.693873   8.045735   36.034584   481.671570   
472.595948   484.020292   -18.010766   15.190902   10.913652   -2.464701   497.719068   
463.550205   464.909548   -15.977247   20.342121   11.394490   0.260575   481.962740   
450.117948   446.013941   -14.843323   24.195452   11.440238   0.342902   465.279754   
432.463061   425.888314   -14.808186   28.233961   10.610335   0.517316   447.141643   
411.216065   404.770627   -14.750707   33.632840   9.220097   2.654384   427.285181   
416.393859   416.400288   61.819901   38.760006   6.209543   -22.264877   380.133100   
433.055708   438.816059   138.424156   40.715492   3.945742   -49.444805   343.156807   
600.241743   632.042144   222.182961   -8.418118   -2.723737   73.262844   452.179356   
551.223110   578.774853   114.664392   -4.526562   -4.040838   33.607484   479.836687   
497.304546   517.865897   8.267752   2.657046   -5.484508   -2.834285   499.948826   
486.056013   501.387577   10.966279   8.392368   -5.711119   0.155030   483.308499   
471.465978   482.000546   11.953990   12.822926   -5.715833   -0.158483   465.544259   
453.574346   459.688898   10.203028   16.980687   -5.312501   -0.452772   447.572887   
432.325711   434.414728   7.602148   21.686945   -4.642298   1.725076   427.654554   
433.245023   436.494955   79.677152   26.664520   -3.142758   -20.888424   375.462190   
445.762771   452.088078   153.190959   29.106308   -2.005417   -45.884823   333.885891   
594.818156   620.877489   206.074762   -10.435556   1.356408   74.681398   461.016806   
546.873336   570.205528   96.784194   -8.631637   2.003189   34.424691   491.729102   
494.266717   514.419993   -11.539242   -5.268680   2.700241   -2.702664   516.413068   
483.037206   501.525741   -9.226218   -2.161749   2.788418   0.200328   501.816525   
468.213178   483.314921   -8.104721   0.788324   2.779473   0.082767   484.090019   
450.521069   460.473288   -8.528726   3.427006   2.594603   0.028840   464.189232   
429.051145   432.772679   -9.116531   5.699641   2.298072   2.208564   440.279350   
426.870597   430.526853   65.302604   7.844080   1.579799   -20.370636   380.654036   
436.724182   443.570144   140.109934   8.952385   1.020036   -45.292285   334.196111   
565.480886   597.677904   202.832287   -11.621376   -0.600726   65.237434   430.022266   
531.936534   557.540607   104.459351   -10.833203   -0.907658   29.772159   466.321904   
497.033621   514.632442   7.070273   -10.682877   -1.282216   -2.676667   499.464109   
489.980079   505.396674   9.475932   -11.235706   -1.369823   0.156259   488.789526   
475.805614   488.620158   10.371399   -11.033182   -1.363823   -0.041000   472.369380   
456.658180   464.758212   8.813336   -11.107223   -1.274072   -0.208018   452.377862   
431.299197   433.901858   6.510894   -12.114734   -1.110491   1.887378   426.714442   
416.928525   422.134083   71.871660   -12.422972   -0.745144   -17.596341   362.663862   
417.248886   427.672331   138.503140   -11.915246   -0.479611   -39.328738   313.188179   
520.001729   560.779583   173.529705   -12.126483   -0.116387   60.080008   415.564996   
498.527461   528.623946   79.443306   -13.060504   -0.067881   27.313389   459.039918   
478.388776   494.655035   -13.689262   -15.688891   0.009759   -2.549279   501.291271   
474.817063   487.254015   -11.645592   -18.955847   0.025585   0.178408   493.912331   
461.495011   471.833715   -10.690385   -22.139442   0.008784   0.048966   479.005431   
441.818464   448.367981   -10.791336   -25.727519   0.021565   -0.037224   458.147373   
414.489308   416.994096   -10.970524   -30.019880   0.034494   1.996125   430.038216   
393.790147   400.706482   54.213008   -33.320686   0.002476   -16.202663   361.663565   
389.158348   402.159575   119.609408   -34.306205   -0.026198   -36.567812   309.291541   
528.965445   562.589625   187.647183   -16.559456   5.631807   62.103069   408.509656   
500.682392   521.265752   94.468492   -18.143482   8.315848   28.378878   442.645471   
472.701624   477.322097   2.290251   -20.790323   10.880429   -2.479953   474.627300   
469.085274   471.713168   4.585691   -24.648964   10.717560   0.213021   468.201448   
456.678227   459.553016   5.478925   -31.048788   10.487596   0.067003   456.308991   
435.058307   434.812990   4.277056   -38.201230   9.913043   -0.032524   436.211955   
405.050061   401.355276   2.463150   -45.016968   9.134020   1.915999   408.835724   
389.924125   390.701526   65.242048   -50.722443   6.470093   -17.427527   351.767429   
391.674929   397.936470   129.034739   -53.160623   4.197191   -38.845470   309.598920   
616.350315   589.521702   361.460695   -13.238013   -132.799587   -0.145463   335.086775   
639.053460   625.098148   379.153554   -30.800352   -59.861577   -0.407027   300.587407   
605.545564   575.585487   354.046070   -20.540659   -127.865777   -0.043968   327.313185   
586.916998   553.573222   341.842065   -24.331595   -124.901845   0.090154   318.820195   
574.544538   542.162901   334.735815   -30.145060   -118.899736   -0.044481   309.777222   
544.741096   510.238130   316.213427   -35.203215   -114.872826   0.047327   298.560738   
501.489504   475.584308   292.878225   -40.385512   -104.084385   -0.098145   276.771444   
457.254248   446.400198   271.007112   -52.166868   -50.100941   0.078248   236.815882   
448.630744   428.492087   262.916266   -48.324210   -93.301265   -0.049803   253.528038   
-9.483616   -9.048656   -19.466162   -2.188200   17.999085   7.238598   35.321950   
-22.136418   -48.322786   -25.820337   -1.490984   1.011799   -1.504655   24.886963   
-29.481106   -65.701870   -32.543833   -2.610855   11.448948   -0.264113   40.302405   
-32.733737   -73.180869   -35.985674   -2.261000   24.681633   -0.515228   57.954257   
-32.498159   -73.412370   -35.078537   -1.934485   33.399107   -0.343428   70.236304   
-30.515573   -68.282928   -33.481053   -1.473477   24.336343   -0.393151   55.739741   
-25.414758   -56.667465   -28.047296   -0.728150   9.583527   -0.237569   34.331908   
-17.682687   -38.493662   -20.664265   -0.202101   -3.762951   0.242778   20.560050   
-5.497953   -5.508900   -11.865340   1.695599   11.388255   -5.089045   22.712802   
3.737328   -1.806166   15.965912   -10.773885   -18.016077   -20.119526   90.086241   
5.803076   -3.862057   27.323049   -7.698057   -25.457539   -3.967226   82.041655   
8.737075   -8.150733   40.682497   -3.207723   -31.037379   8.467582   71.714052   
9.733473   -11.153892   43.468269   -1.172048   -26.218825   5.405429   67.044723   
9.795799   -11.775237   43.501296   0.111292   -22.603005   8.787369   64.457531   
9.619675   -10.654009   40.414543   1.390196   -23.808590   12.857581   65.142298   
9.089417   -7.552642   34.768975   3.099912   -27.322121   11.944779   64.559625   
7.341785   -3.124165   22.390697   6.371047   -22.353622   19.768618   70.545499   
6.014109   -0.824857   13.321668   8.549200   -15.736064   29.848869   77.999692   
3.978517   6.465679   -0.320409   -10.695918   -5.158542   -15.439236   65.112334   
1.188579   7.297818   -4.208014   -7.974550   -8.867473   -0.057921   51.947336   
-1.713554   7.966516   -8.458741   -3.440968   -12.723123   13.338343   36.009784   
-1.688757   7.539367   -8.992966   -0.664369   -11.915413   11.294858   32.022480   
-1.353245   7.084761   -9.013460   1.112715   -10.692063   12.184449   31.559965   
-0.804534   6.768571   -8.360064   2.716606   -10.999044   13.493714   33.308717   
0.088003   6.523035   -7.178061   4.697517   -11.453293   12.519220   33.037830   
2.816518   5.823240   -3.283262   7.703434   -8.094922   21.156298   46.758376   
5.002686   5.243688   -0.067679   9.519633   -4.858203   31.129107   61.746326   
4.274092   6.167859   2.268385   -6.559776   -4.401693   -22.301084   70.894574   
4.621155   9.752335   3.607032   -5.625759   -6.940368   -3.950822   51.672351   
4.882831   14.559775   5.076579   -3.438773   -10.195158   12.974231   31.166039   
4.907105   16.032100   5.302131   -1.208647   -10.965519   11.817424   30.187306   
5.098236   15.996152   5.304993   0.539458   -10.832964   13.104080   31.508607   
5.214677   14.953780   4.922635   2.090721   -10.272589   14.733787   32.958451   
5.387577   12.797038   4.296495   3.772146   -8.933228   14.749457   31.794335   
5.307043   8.485559   3.096543   5.336221   -5.700967   26.633837   50.403264   
5.088577   5.573756   2.232161   5.999187   -3.434490   39.113998   70.610209   
2.774727   2.625703   0.326098   -5.202847   1.638687   -23.579034   64.454244   
1.686752   3.432624   -0.924265   -4.396688   1.568663   -6.009628   43.271488   
0.184344   5.071586   -2.235643   -2.719435   0.331305   11.073790   21.139917   
-0.331656   6.206623   -2.342803   -1.062953   -1.379937   11.342964   21.478997   
-0.305021   6.444913   -2.348058   0.419692   -1.926344   13.303521   24.709697   
0.151209   6.008632   -2.175781   1.773676   -1.445662   15.503462   28.216111   
1.028435   4.879136   -1.881434   3.076469   -0.008362   16.738979   30.243837   
2.496664   3.381337   -0.616556   4.321316   1.053570   29.057936   51.463789   
3.415695   2.641461   0.485361   4.920098   1.161383   41.135923   72.219623   
3.147836   3.503220   0.909321   -3.237461   3.720990   -31.611882   68.257335   
2.866257   5.288083   0.889058   -2.905036   4.984554   -12.794219   42.583677   
2.239945   8.084134   0.845120   -2.019558   5.116473   7.009078   17.324254   
1.776014   9.544741   0.837756   -0.890794   3.318191   9.643880   19.882255   
1.706688   9.902102   0.838058   0.214119   2.589988   13.190879   24.973445   
1.956513   9.212523   0.775194   1.240388   3.029288   16.796269   30.768050   
2.519009   7.560282   0.704819   2.181631   4.293744   19.679477   35.731212   
3.176884   4.923791   0.821393   2.899223   3.966672   33.629067   59.621820   
3.472216   3.342018   0.961487   3.172637   2.876009   46.403007   81.396447   
2.414220   2.176735   0.652454   -2.263071   3.298151   -36.172541   68.962605   
1.940546   3.124651   0.213668   -1.972076   5.302826   -17.003494   41.722931   
1.136254   4.927442   -0.220385   -1.336164   7.339951   4.090741   16.106846   
0.668354   6.200225   -0.222730   -0.613830   6.791982   8.105955   19.837759   
0.573585   6.601678   -0.225179   0.137302   6.119551   12.639207   25.428501   
0.822093   6.155019   -0.205924   0.847762   6.592581   17.186011   32.520068   
1.396618   4.906772   -0.175972   1.466840   7.290583   20.838492   38.652788   
2.208139   3.160698   0.257775   1.991326   5.454754   34.945706   62.251391   
2.651130   2.232666   0.676195   2.233480   3.485968   47.504018   83.325422   
2.138780   2.289900   0.475004   -1.119566   1.088680   -32.591941   65.942334   
1.863500   3.454362   0.260484   -1.040049   3.533863   -14.004194   40.343728   
1.425684   5.448266   0.019683   -0.804381   7.395604   4.449026   16.402220   
1.211966   6.691242   -0.005093   -0.411522   7.460138   5.906390   18.432306   
1.175753   7.086200   -0.003496   0.078588   5.932900   10.516259   22.587438   
1.267694   6.628754   -0.002538   0.546664   7.243402   15.559399   30.470085   
1.515439   5.359489   0.018937   0.887202   8.786233   17.673293   34.637147   
1.959187   3.405804   0.281081   1.078520   6.244764   29.249568   53.321231   
2.232162   2.282514   0.522616   1.143977   3.646179   40.737112   71.938754   
1.650938   3.853138   1.649296   -0.880659   72.105484   -0.141289   124.919343   
1.126364   2.671128   1.086361   -0.452576   38.110963   -0.416676   66.429539   
2.198433   5.131163   2.196678   -0.681063   71.688155   -0.041957   124.210629   
2.601684   6.068641   2.603963   -0.418689   69.714377   0.091060   120.805301   
2.731666   6.375674   2.730008   0.062336   68.398538   -0.043287   118.529865   
2.580346   6.019328   2.582191   0.524278   64.635547   0.049293   112.012140   
2.153634   5.026008   2.152269   0.767475   63.102685   -0.096831   109.345434   
1.115908   2.632858   1.091910   0.488275   32.773952   0.087034   56.807740   
1.589864   3.709855   1.588581   0.928812   60.679119   -0.049713   105.133054   
-1006.878615   -778.368774   -469.570123   -574.006943   -25.270479   -76.550138   1107.286936   
-272.529082   296.238502   -252.564443   24.522671   -178.639169   -67.216241   650.871665   
-310.770126   319.904562   -265.293317   3.709264   -191.362161   -47.621301   698.455940   
-322.902613   298.981979   -284.750036   2.138038   -199.672235   -47.378844   700.588715   
-307.847127   323.820851   -260.206508   6.001661   -203.390018   -33.737726   706.262182   
-300.812515   280.986547   -262.310709   9.296552   -186.249594   -22.167694   650.670772   
-268.383829   267.050295   -227.907918   9.106001   -162.190823   -20.449831   589.132202   
-211.555715   220.901136   -202.138427   -6.137292   -135.030949   -11.655427   488.114392   
-412.361067   -398.245311   -202.350010   306.403996   -15.606592   66.045141   580.350101   
-557.712971   -541.957472   -213.666756   -66.017628   -3.526539   74.133038   411.256928   
-509.559412   -467.668118   -126.307104   -52.368381   -7.975164   35.861402   405.322019   
-459.902302   -388.200798   -41.920680   -35.628756   -12.500922   0.349367   392.828378   
-454.750534   -378.036261   -46.653980   -31.945335   -12.244947   2.822253   380.361816   
-443.072956   -365.709137   -47.332018   -31.277327   -11.722365   1.757298   367.891624   
-422.010815   -347.963865   -43.364212   -31.537211   -11.325254   0.631387   352.425984   
-393.762551   -326.107348   -36.520946   -32.370246   -10.698250   2.060891   334.037061   
-394.742331   -348.545909   -91.120754   -25.101600   -6.765228   -21.588278   305.441494   
-410.937594   -382.436266   -149.678057   -17.334768   -3.251573   -47.014621   286.331572   
-554.825105   -601.227600   -196.253707   -25.162280   -3.064888   73.044742   448.538504   
-514.888200   -539.779988   -84.846942   -22.842110   -3.283834   33.197081   476.686972   
-469.443957   -467.519788   26.575948   -20.472227   -3.438779   -3.585309   496.565438   
-458.337236   -448.555030   25.313467   -20.971548   -3.546953   -0.767127   480.274208   
-444.516290   -430.938337   23.979830   -21.942477   -3.629007   -0.485737   463.472715   
-426.091106   -411.194086   23.464912   -23.393478   -3.282608   -0.090249   444.204074   
-405.087811   -390.951821   22.174816   -25.507883   -2.849190   2.185327   422.835265   
-405.232863   -404.909989   -57.123910   -25.366906   -2.376465   -20.690345   369.541604   