<VTKFile type="UnstructuredGrid"  version="0.1"   > 
<UnstructuredGrid> 
<Piece  NumberOfPoints="  33" NumberOfCells=" 20"> 
<Points> 
<DataArray  type="Float64"  NumberOfComponents="3"  format="ascii" > 
0.000000 0.000000 10.000000 
32.000000 0.000000 10.000000 
64.000000 0.000000 10.000000 
96.000000 0.000000 10.000000 
128.000000 0.000000 10.000000 
160.000000 0.000000 10.000000 
192.000000 0.000000 10.000000 
224.000000 0.000000 10.000000 
256.000000 0.000000 10.000000 
288.000000 0.000000 10.000000 
320.000000 0.000000 10.000000 
0.000000 40.000000 10.000000 
32.000000 40.000000 10.000000 
64.000000 40.000000 10.000000 
96.000000 40.000000 10.000000 
128.000000 40.000000 10.000000 
160.000000 40.000000 10.000000 
192.000000 40.000000 10.000000 
224.000000 40.000000 10.000000 
256.000000 40.000000 10.000000 
288.000000 40.000000 10.000000 
320.000000 40.000000 10.000000 
0.000000 80.000000 10.000000 
32.000000 80.000000 10.000000 
64.000000 80.000000 10.000000 
96.000000 80.000000 10.000000 
128.000000 80.000000 10.000000 
160.000000 80.000000 10.000000 
192.000000 80.000000 10.000000 
224.000000 80.000000 10.000000 
256.000000 80.000000 10.000000 
288.000000 80.000000 10.000000 
320.000000 80.000000 10.000000 
</DataArray> 
</Points> 
<Cells> 
<DataArray  type="Int32"  Name="connectivity"  format="ascii"> 
0 1 12 11 
1 2 13 12 
2 3 14 13 
3 4 15 14 
4 5 16 15 
5 6 17 16 
6 7 18 17 
7 8 19 18 
8 9 20 19 
9 10 21 20 
11 12 23 22 
12 13 24 23 
13 14 25 24 
14 15 26 25 
15 16 27 26 
16 17 28 27 
17 18 29 28 
18 19 30 29 
19 20 31 30 
20 21 32 31 
</DataArray> 
<DataArray  type="Int32"  Name="offsets"  format="ascii"> 
4 
8 
12 
16 
20 
24 
28 
32 
36 
40 
44 
48 
52 
56 
60 
64 
68 
72 
76 
80 
</DataArray> 
<DataArray  type="UInt8"  Name="types"  format="ascii"> 
9 
9 
9 
9 
9 
9 
9 
9 
9 
9 
9 
9 
9 
9 
9 
9 
9 
9 
9 
9 
</DataArray> 
</Cells> 
<PointData  Vectors="sigma"> 
<DataArray  type="Float64"  Name="sigma" NumberOfComponents="3" format="ascii"> 
0.000000   0.000000   0.000000   
0.000000   0.000000   0.000000   
0.000000   0.000000   0.000000   
0.000000   0.000000   0.000000   
0.000000   0.000000   0.000000   
0.000000   0.000000   0.000000   
0.000000   0.000000   0.000000   
0.000000   0.000000   0.000000   
0.000000   0.000000   0.000000   
0.000000   0.000000   0.000000   
0.000000   0.000000   0.000000   
0.000000   0.000000   0.000000   
0.000000   0.000000   0.000000   
0.000000   0.000000   0.000000   
0.000000   0.000000   0.000000   
0.000000   0.000000   0.000000   
0.000000   0.000000   0.000000   
0.000000   0.000000   0.000000   
0.000000   0.000000   0.000000   
0.000000   0.000000   0.000000   
0.000000   0.000000   0.000000   
0.000000   0.000000   0.000000   
0.000000   0.000000   0.000000   
0.000000   0.000000   0.000000   
0.000000   0.000000   0.000000   
0.000000   0.000000   0.000000   
0.000000   0.000000   0.000000   
0.000000   0.000000   0.000000   
0.000000   0.000000   0.000000   
0.000000   0.000000   0.000000   
0.000000   0.000000   0.000000   
0.000000   0.000000   0.000000   
0.000000   0.000000   0.000000   
</DataArray> 
<DataArray  type="Float64"  Name="U" NumberOfComponents="3" format="ascii"> 
  0.00000000     0.00000000     0.00000000   
  0.00000000     0.00000000     0.00000000   
  0.00000000     0.00000000     0.00000000   
  0.00000000     0.00000000   -18.32450973   
  0.00000000     0.00000000   -31.09556506   
  0.00000000     0.00000000   -45.28154183   
  0.00000000     0.00000000   -60.76983529   
  0.00000000     0.00000000   -77.30794966   
  0.00000000     0.00000000   -94.63325842   
  0.00000000     0.00000000   -112.48197167   
  0.00000000     0.00000000   -130.58792162   
  0.00000000     0.00000000     0.00000000   
  0.00000000     0.00000000     0.00000000   
  0.00000000     0.00000000     0.00000000   
  0.00000000     0.00000000   -18.65767979   
  0.00000000     0.00000000   -31.28162382   
  0.00000000     0.00000000   -45.42146066   
  0.00000000     0.00000000   -60.88293022   
  0.00000000     0.00000000   -77.39305617   
  0.00000000     0.00000000   -94.68983036   
  0.00000000     0.00000000   -112.51259462   
  0.00000000     0.00000000   -130.60466347   
  0.00000000     0.00000000     0.00000000   
  0.00000000     0.00000000     0.00000000   
  0.00000000     0.00000000     0.00000000   
  0.00000000     0.00000000   -18.32450973   
  0.00000000     0.00000000   -31.09556506   
  0.00000000     0.00000000   -45.28154183   
  0.00000000     0.00000000   -60.76983529   
  0.00000000     0.00000000   -77.30794966   
  0.00000000     0.00000000   -94.63325842   
  0.00000000     0.00000000   -112.48197167   
  0.00000000     0.00000000   -130.58792162   
</DataArray> 
</PointData> 
</Piece> 
</UnstructuredGrid> 
</VTKFile> 
