<VTKFile type="UnstructuredGrid"  version="0.1"   > 
<UnstructuredGrid> 
<Piece  NumberOfPoints="  990" NumberOfCells=" 640"> 
<Points> 
<DataArray  type="Float64"  NumberOfComponents="3"  format="ascii" > 
0.000000 0.000000 0.000000 
5.000000 0.000000 0.000000 
10.000000 0.000000 0.000000 
15.000000 0.000000 0.000000 
20.000000 0.000000 0.000000 
25.000000 0.000000 0.000000 
30.000000 0.000000 0.000000 
35.000000 0.000000 0.000000 
40.000000 0.000000 0.000000 
45.000000 0.000000 0.000000 
50.000000 0.000000 0.000000 
55.000000 0.000000 0.000000 
60.000000 0.000000 0.000000 
65.000000 0.000000 0.000000 
70.000000 0.000000 0.000000 
75.000000 0.000000 0.000000 
80.000000 0.000000 0.000000 
85.000000 0.000000 0.000000 
90.000000 0.000000 0.000000 
95.000000 0.000000 0.000000 
100.000000 0.000000 0.000000 
105.000000 0.000000 0.000000 
110.000000 0.000000 0.000000 
115.000000 0.000000 0.000000 
120.000000 0.000000 0.000000 
125.000000 0.000000 0.000000 
130.000000 0.000000 0.000000 
135.000000 0.000000 0.000000 
140.000000 0.000000 0.000000 
145.000000 0.000000 0.000000 
150.000000 0.000000 0.000000 
155.000000 0.000000 0.000000 
160.000000 0.000000 0.000000 
0.000000 20.000000 0.000000 
5.000000 20.000000 0.000000 
10.000000 20.000000 0.000000 
15.000000 20.000000 0.000000 
20.000000 20.000000 0.000000 
25.000000 20.000000 0.000000 
30.000000 20.000000 0.000000 
35.000000 20.000000 0.000000 
40.000000 20.000000 0.000000 
45.000000 20.000000 0.000000 
50.000000 20.000000 0.000000 
55.000000 20.000000 0.000000 
60.000000 20.000000 0.000000 
65.000000 20.000000 0.000000 
70.000000 20.000000 0.000000 
75.000000 20.000000 0.000000 
80.000000 20.000000 0.000000 
85.000000 20.000000 0.000000 
90.000000 20.000000 0.000000 
95.000000 20.000000 0.000000 
100.000000 20.000000 0.000000 
105.000000 20.000000 0.000000 
110.000000 20.000000 0.000000 
115.000000 20.000000 0.000000 
120.000000 20.000000 0.000000 
125.000000 20.000000 0.000000 
130.000000 20.000000 0.000000 
135.000000 20.000000 0.000000 
140.000000 20.000000 0.000000 
145.000000 20.000000 0.000000 
150.000000 20.000000 0.000000 
155.000000 20.000000 0.000000 
160.000000 20.000000 0.000000 
0.000000 40.000000 0.000000 
5.000000 40.000000 0.000000 
10.000000 40.000000 0.000000 
15.000000 40.000000 0.000000 
20.000000 40.000000 0.000000 
25.000000 40.000000 0.000000 
30.000000 40.000000 0.000000 
35.000000 40.000000 0.000000 
40.000000 40.000000 0.000000 
45.000000 40.000000 0.000000 
50.000000 40.000000 0.000000 
55.000000 40.000000 0.000000 
60.000000 40.000000 0.000000 
65.000000 40.000000 0.000000 
70.000000 40.000000 0.000000 
75.000000 40.000000 0.000000 
80.000000 40.000000 0.000000 
85.000000 40.000000 0.000000 
90.000000 40.000000 0.000000 
95.000000 40.000000 0.000000 
100.000000 40.000000 0.000000 
105.000000 40.000000 0.000000 
110.000000 40.000000 0.000000 
115.000000 40.000000 0.000000 
120.000000 40.000000 0.000000 
125.000000 40.000000 0.000000 
130.000000 40.000000 0.000000 
135.000000 40.000000 0.000000 
140.000000 40.000000 0.000000 
145.000000 40.000000 0.000000 
150.000000 40.000000 0.000000 
155.000000 40.000000 0.000000 
160.000000 40.000000 0.000000 
0.000000 60.000000 0.000000 
5.000000 60.000000 0.000000 
10.000000 60.000000 0.000000 
15.000000 60.000000 0.000000 
20.000000 60.000000 0.000000 
25.000000 60.000000 0.000000 
30.000000 60.000000 0.000000 
35.000000 60.000000 0.000000 
40.000000 60.000000 0.000000 
45.000000 60.000000 0.000000 
50.000000 60.000000 0.000000 
55.000000 60.000000 0.000000 
60.000000 60.000000 0.000000 
65.000000 60.000000 0.000000 
70.000000 60.000000 0.000000 
75.000000 60.000000 0.000000 
80.000000 60.000000 0.000000 
85.000000 60.000000 0.000000 
90.000000 60.000000 0.000000 
95.000000 60.000000 0.000000 
100.000000 60.000000 0.000000 
105.000000 60.000000 0.000000 
110.000000 60.000000 0.000000 
115.000000 60.000000 0.000000 
120.000000 60.000000 0.000000 
125.000000 60.000000 0.000000 
130.000000 60.000000 0.000000 
135.000000 60.000000 0.000000 
140.000000 60.000000 0.000000 
145.000000 60.000000 0.000000 
150.000000 60.000000 0.000000 
155.000000 60.000000 0.000000 
160.000000 60.000000 0.000000 
0.000000 80.000000 0.000000 
5.000000 80.000000 0.000000 
10.000000 80.000000 0.000000 
15.000000 80.000000 0.000000 
20.000000 80.000000 0.000000 
25.000000 80.000000 0.000000 
30.000000 80.000000 0.000000 
35.000000 80.000000 0.000000 
40.000000 80.000000 0.000000 
45.000000 80.000000 0.000000 
50.000000 80.000000 0.000000 
55.000000 80.000000 0.000000 
60.000000 80.000000 0.000000 
65.000000 80.000000 0.000000 
70.000000 80.000000 0.000000 
75.000000 80.000000 0.000000 
80.000000 80.000000 0.000000 
85.000000 80.000000 0.000000 
90.000000 80.000000 0.000000 
95.000000 80.000000 0.000000 
100.000000 80.000000 0.000000 
105.000000 80.000000 0.000000 
110.000000 80.000000 0.000000 
115.000000 80.000000 0.000000 
120.000000 80.000000 0.000000 
125.000000 80.000000 0.000000 
130.000000 80.000000 0.000000 
135.000000 80.000000 0.000000 
140.000000 80.000000 0.000000 
145.000000 80.000000 0.000000 
150.000000 80.000000 0.000000 
155.000000 80.000000 0.000000 
160.000000 80.000000 0.000000 
0.000000 0.000000 2.000000 
5.000000 0.000000 2.000000 
10.000000 0.000000 2.000000 
15.000000 0.000000 2.000000 
20.000000 0.000000 2.000000 
25.000000 0.000000 2.000000 
30.000000 0.000000 2.000000 
35.000000 0.000000 2.000000 
40.000000 0.000000 2.000000 
45.000000 0.000000 2.000000 
50.000000 0.000000 2.000000 
55.000000 0.000000 2.000000 
60.000000 0.000000 2.000000 
65.000000 0.000000 2.000000 
70.000000 0.000000 2.000000 
75.000000 0.000000 2.000000 
80.000000 0.000000 2.000000 
85.000000 0.000000 2.000000 
90.000000 0.000000 2.000000 
95.000000 0.000000 2.000000 
100.000000 0.000000 2.000000 
105.000000 0.000000 2.000000 
110.000000 0.000000 2.000000 
115.000000 0.000000 2.000000 
120.000000 0.000000 2.000000 
125.000000 0.000000 2.000000 
130.000000 0.000000 2.000000 
135.000000 0.000000 2.000000 
140.000000 0.000000 2.000000 
145.000000 0.000000 2.000000 
150.000000 0.000000 2.000000 
155.000000 0.000000 2.000000 
160.000000 0.000000 2.000000 
0.000000 20.000000 2.000000 
5.000000 20.000000 2.000000 
10.000000 20.000000 2.000000 
15.000000 20.000000 2.000000 
20.000000 20.000000 2.000000 
25.000000 20.000000 2.000000 
30.000000 20.000000 2.000000 
35.000000 20.000000 2.000000 
40.000000 20.000000 2.000000 
45.000000 20.000000 2.000000 
50.000000 20.000000 2.000000 
55.000000 20.000000 2.000000 
60.000000 20.000000 2.000000 
65.000000 20.000000 2.000000 
70.000000 20.000000 2.000000 
75.000000 20.000000 2.000000 
80.000000 20.000000 2.000000 
85.000000 20.000000 2.000000 
90.000000 20.000000 2.000000 
95.000000 20.000000 2.000000 
100.000000 20.000000 2.000000 
105.000000 20.000000 2.000000 
110.000000 20.000000 2.000000 
115.000000 20.000000 2.000000 
120.000000 20.000000 2.000000 
125.000000 20.000000 2.000000 
130.000000 20.000000 2.000000 
135.000000 20.000000 2.000000 
140.000000 20.000000 2.000000 
145.000000 20.000000 2.000000 
150.000000 20.000000 2.000000 
155.000000 20.000000 2.000000 
160.000000 20.000000 2.000000 
0.000000 40.000000 2.000000 
5.000000 40.000000 2.000000 
10.000000 40.000000 2.000000 
15.000000 40.000000 2.000000 
20.000000 40.000000 2.000000 
25.000000 40.000000 2.000000 
30.000000 40.000000 2.000000 
35.000000 40.000000 2.000000 
40.000000 40.000000 2.000000 
45.000000 40.000000 2.000000 
50.000000 40.000000 2.000000 
55.000000 40.000000 2.000000 
60.000000 40.000000 2.000000 
65.000000 40.000000 2.000000 
70.000000 40.000000 2.000000 
75.000000 40.000000 2.000000 
80.000000 40.000000 2.000000 
85.000000 40.000000 2.000000 
90.000000 40.000000 2.000000 
95.000000 40.000000 2.000000 
100.000000 40.000000 2.000000 
105.000000 40.000000 2.000000 
110.000000 40.000000 2.000000 
115.000000 40.000000 2.000000 
120.000000 40.000000 2.000000 
125.000000 40.000000 2.000000 
130.000000 40.000000 2.000000 
135.000000 40.000000 2.000000 
140.000000 40.000000 2.000000 
145.000000 40.000000 2.000000 
150.000000 40.000000 2.000000 
155.000000 40.000000 2.000000 
160.000000 40.000000 2.000000 
0.000000 60.000000 2.000000 
5.000000 60.000000 2.000000 
10.000000 60.000000 2.000000 
15.000000 60.000000 2.000000 
20.000000 60.000000 2.000000 
25.000000 60.000000 2.000000 
30.000000 60.000000 2.000000 
35.000000 60.000000 2.000000 
40.000000 60.000000 2.000000 
45.000000 60.000000 2.000000 
50.000000 60.000000 2.000000 
55.000000 60.000000 2.000000 
60.000000 60.000000 2.000000 
65.000000 60.000000 2.000000 
70.000000 60.000000 2.000000 
75.000000 60.000000 2.000000 
80.000000 60.000000 2.000000 
85.000000 60.000000 2.000000 
90.000000 60.000000 2.000000 
95.000000 60.000000 2.000000 
100.000000 60.000000 2.000000 
105.000000 60.000000 2.000000 
110.000000 60.000000 2.000000 
115.000000 60.000000 2.000000 
120.000000 60.000000 2.000000 
125.000000 60.000000 2.000000 
130.000000 60.000000 2.000000 
135.000000 60.000000 2.000000 
140.000000 60.000000 2.000000 
145.000000 60.000000 2.000000 
150.000000 60.000000 2.000000 
155.000000 60.000000 2.000000 
160.000000 60.000000 2.000000 
0.000000 80.000000 2.000000 
5.000000 80.000000 2.000000 
10.000000 80.000000 2.000000 
15.000000 80.000000 2.000000 
20.000000 80.000000 2.000000 
25.000000 80.000000 2.000000 
30.000000 80.000000 2.000000 
35.000000 80.000000 2.000000 
40.000000 80.000000 2.000000 
45.000000 80.000000 2.000000 
50.000000 80.000000 2.000000 
55.000000 80.000000 2.000000 
60.000000 80.000000 2.000000 
65.000000 80.000000 2.000000 
70.000000 80.000000 2.000000 
75.000000 80.000000 2.000000 
80.000000 80.000000 2.000000 
85.000000 80.000000 2.000000 
90.000000 80.000000 2.000000 
95.000000 80.000000 2.000000 
100.000000 80.000000 2.000000 
105.000000 80.000000 2.000000 
110.000000 80.000000 2.000000 
115.000000 80.000000 2.000000 
120.000000 80.000000 2.000000 
125.000000 80.000000 2.000000 
130.000000 80.000000 2.000000 
135.000000 80.000000 2.000000 
[...]
<PointData  Vectors="sigma"> 
<DataArray  type="Float64"  Name="sigma" NumberOfComponents="7" format="ascii"> 
-51.133594   -21.914397   -21.914397   -17.458799   0.000000   -6.736474   43.638637   
-40.929015   -0.817049   -0.520840   -6.219741   0.139268   0.242627   41.680084   
-41.984064   1.369452   0.689727   -2.855659   0.169117   0.262931   43.304486   
-42.882004   1.157243   -0.369942   -1.570466   0.117376   -0.193447   43.382994   
-43.139992   1.216010   0.286123   -1.067197   0.077686   0.111777   43.937978   
-43.339936   0.828823   -0.055283   -0.788305   0.035729   -0.059206   43.754882   
-43.033941   0.701947   0.118087   -0.597600   0.021153   0.028255   43.459271   
-42.605519   0.517713   0.025539   -0.444103   0.005888   -0.014186   42.886171   
-41.990251   0.426273   0.061258   -0.315698   0.003612   0.005828   42.238741   
-41.324077   0.335987   0.034315   -0.206967   -0.000460   -0.002876   41.511598   
-40.600642   0.277006   0.037263   -0.114963   0.000016   0.000949   40.758791   
-39.860619   0.225565   0.027437   -0.037508   -0.000768   -0.000428   39.987541   
-39.105283   0.186433   0.024369   0.027454   -0.000200   0.000174   39.210964   
-38.345988   0.153516   0.019495   0.081687   -0.000259   0.000073   38.432929   
-37.583949   0.126791   0.016308   0.126804   0.000034   0.000162   37.656260   
-36.822080   0.104465   0.013319   0.164193   0.000055   0.000206   36.882153   
-36.060844   0.085899   0.010927   0.195064   0.000172   0.000235   36.110896   
-35.300838   0.070351   0.008918   0.220448   0.000153   0.000271   35.342575   
-34.542093   0.057269   0.007241   0.241198   0.000217   0.000290   34.576900   
-33.784731   0.046182   0.005788   0.258070   0.000120   0.000321   33.813689   
-33.028461   0.036759   0.004763   0.271598   0.000248   0.000300   33.052581   
-32.273970   0.028328   0.003296   0.282405   -0.000053   0.000430   32.293494   
-31.519771   0.021361   0.003642   0.290647   0.000323   0.000101   31.536294   
-30.769826   0.013228   0.000073   0.297092   -0.000584   0.001019   30.780781   
-30.016750   0.008646   0.006153   0.301257   0.000422   -0.001283   30.028684   
-29.278335   -0.005337   -0.008876   0.304433   -0.002234   0.004278   29.275979   
-28.522496   -0.003317   0.022824   0.305335   0.000118   -0.008554   28.537164   
-27.817284   -0.044392   -0.042689   0.304673   -0.007266   0.019799   27.778780   
-27.042321   -0.014466   0.094253   0.303352   -0.002873   -0.040958   27.087568   
-26.388958   -0.145871   -0.158423   0.287116   -0.022843   0.078704   26.241910   
-25.422887   0.003691   0.286025   0.263683   -0.015425   -0.127131   25.573955   
-23.465015   0.326130   -0.020296   -0.013017   -0.037185   -0.075341   23.620296   
-29.162745   -3.228189   -9.330504   -0.326753   -0.298476   5.007117   25.047552   
-58.405273   -20.915833   -15.481981   -3.541481   0.026370   -7.869034   45.419811   
-51.998178   -15.397759   -7.568433   -3.548853   0.041759   -3.778175   43.828691   
-45.834956   -8.967628   0.254274   -3.500142   0.052392   0.189589   42.700160   
-45.740030   -7.291498   0.023175   -3.303986   0.034406   0.005103   42.981393   
-44.983916   -5.875683   -0.016041   -2.981546   0.010923   -0.012047   42.665145   
-44.203159   -4.771119   0.030435   -2.600255   -0.005013   0.008298   42.286531   
-43.454264   -3.928991   0.003022   -2.202959   -0.013034   -0.004070   41.809960   
-42.703736   -3.238991   0.016154   -1.817100   -0.015817   0.002063   41.312866   
-41.964698   -2.683527   0.007810   -1.458723   -0.015672   -0.000923   40.774930   
-41.220998   -2.221800   0.009850   -1.136189   -0.014147   0.000447   40.212006   
-40.478290   -1.841300   0.006891   -0.852525   -0.012171   -0.000170   39.622663   
-39.732790   -1.524310   0.006438   -0.607258   -0.010178   0.000086   39.011826   
-38.986643   -1.261173   0.005059   -0.397902   -0.008388   -0.000023   38.381359   
-38.239265   -1.042029   0.004311   -0.220934   -0.006851   0.000015   37.733893   
-37.491368   -0.859701   0.003503   -0.072486   -0.005574   -0.000001   37.071500   
-36.742953   -0.707782   0.002898   0.051263   -0.004522   0.000002   36.396171   
-35.994245   -0.581087   0.002367   0.153852   -0.003663   -0.000000   35.709706   
-35.245292   -0.475177   0.001935   0.238443   -0.002959   -0.000001   35.013728   
-34.496186   -0.386354   0.001564   0.307785   -0.002379   -0.000001   34.309711   
-33.746942   -0.311452   0.001277   0.364228   -0.001901   -0.000006   33.598967   
-32.997676   -0.247853   0.000973   0.409763   -0.001504   0.000008   32.882675   
-32.248302   -0.193155   0.000867   0.446062   -0.001179   -0.000030   32.161933   
-31.499200   -0.145607   0.000439   0.474545   -0.000917   0.000062   31.437659   
-30.749890   -0.102877   0.000828   0.496425   -0.000746   -0.000155   30.711068   
-30.001751   -0.064336   -0.000407   0.512795   -0.000667   0.000333   29.982616   
-29.252960   -0.025969   0.001845   0.524657   -0.000821   -0.000716   29.255047   
-28.507998   0.010149   -0.002638   0.533067   -0.001234   0.001423   28.526740   
-27.761395   0.055202   0.006554   0.539067   -0.002393   -0.002872   27.808046   
-27.019313   0.102102   -0.006474   0.544165   -0.004371   0.003844   27.083988   
-26.251330   0.185120   0.010126   0.550068   -0.008485   -0.002253   26.367216   
-25.171481   0.410819   0.086508   0.561334   -0.015352   -0.064243   25.442321   
-25.558877   -0.575888   -2.392396   0.545639   0.009247   1.181875   24.619551   
-26.622953   -1.722795   -4.899990   0.521989   0.037651   2.468832   24.375790   
-63.084292   -23.192015   -16.768789   -0.000000   -0.000000   -8.674923   48.567183   
-55.799972   -17.811087   -8.208812   -0.000000   -0.000000   -4.171287   46.233205   
-48.277610   -11.872567   0.261378   -0.000000   -0.000000   0.202914   43.764539   
-47.283070   -10.591827   0.026863   -0.000000   -0.000000   0.006368   43.008030   
-45.801122   -9.089487   -0.007326   -0.000000   -0.000000   -0.013299   42.003291   
-44.515483   -7.675012   0.045667   -0.000000   -0.000000   0.008855   41.253961   
-43.449071   -6.455089   0.016439   -0.000000   -0.000000   -0.004403   40.623284   
-42.514709   -5.387647   0.029423   -0.000000   -0.000000   0.002105   40.115024   
-41.685105   -4.488169   0.019186   -0.000000   -0.000000   -0.000993   39.646114   
-40.909294   -3.725424   0.019790   -0.000000   -0.000000   0.000425   39.193014   
-40.169808   -3.088171   0.015255   -0.000000   -0.000000   -0.000184   38.728172   
-39.446353   -2.555094   0.013452   -0.000000   -0.000000   0.000069   38.241301   
-38.730987   -2.111610   0.010887   -0.000000   -0.000000   -0.000030   37.726136   
-38.016887   -1.742589   0.009128   -0.000000   -0.000000   0.000002   37.181607   
-37.301369   -1.435948   0.007474   -0.000000   -0.000000   -0.000011   36.608820   
-36.582701   -1.180936   0.006159   -0.000000   -0.000000   -0.000011   36.010227   
-35.860413   -0.968633   0.005038   -0.000000   0.000000   -0.000014   35.388829   
-35.134430   -0.791453   0.004114   -0.000000   0.000000   -0.000016   34.747709   
-34.405001   -0.643052   0.003331   -0.000000   0.000000   -0.000017   34.089821   
-33.672413   -0.518064   0.002700   -0.000000   0.000000   -0.000022   33.417836   
-32.937046   -0.412033   0.002107   -0.000000   0.000000   -0.000011   32.734093   
-32.198986   -0.321047   0.001756   -0.000000   0.000000   -0.000048   32.040595   
-31.458618   -0.242123   0.001125   -0.000000   0.000000   0.000042   31.338855   
-30.715202   -0.172015   0.001344   -0.000000   0.000000   -0.000174   30.630257   
-29.969482   -0.109511   -0.000011   -0.000000   0.000000   0.000309   29.914894   
-29.218389   -0.050596   0.002174   -0.000000   0.000000   -0.000741   29.194232   
-28.464412   0.001816   -0.002295   -0.000000   0.000000   0.001398   28.464210   
-27.698571   0.056385   0.007096   -0.000000   -0.000000   -0.002910   27.730400   
-26.922146   0.100160   -0.005689   -0.000000   -0.000000   0.003876   26.969795   
-26.097604   0.155483   0.011893   -0.000000   -0.000000   -0.002205   26.182208   
-24.944758   0.309425   0.091527   -0.000000   -0.000000   -0.064357   25.147438   
-25.337191   -0.762862   -2.398108   -0.000000   0.000000   1.196348   24.286313   
-26.444320   -1.945574   -4.918782   -0.000000   -0.000000   2.497998   24.068072   
-58.405273   -20.915833   -15.481981   3.541481   -0.026370   -7.869034   45.419811   
-51.998178   -15.397759   -7.568433   3.548853   -0.041759   -3.778175   43.828691   
-45.834956   -8.967628   0.254274   3.500142   -0.052392   0.189589   42.700160   
-45.740030   -7.291498   0.023175   3.303986   -0.034406   0.005103   42.981393   
-44.983916   -5.875683   -0.016041   2.981546   -0.010923   -0.012047   42.665145   
-44.203159   -4.771119   0.030435   2.600255   0.005013   0.008298   42.286531   
-43.454264   -3.928991   0.003022   2.202959   0.013034   -0.004070   41.809960   
-42.703736   -3.238991   0.016154   1.817100   0.015817   0.002063   41.312866   
-41.964698   -2.683527   0.007810   1.458723   0.015672   -0.000923   40.774930   
-41.220998   -2.221800   0.009850   1.136189   0.014147   0.000447   40.212006   
-40.478290   -1.841300   0.006891   0.852525   0.012171   -0.000170   39.622663   
-39.732790   -1.524310   0.006438   0.607258   0.010178   0.000086   39.011826   
-38.986643   -1.261173   0.005059   0.397902   0.008388   -0.000023   38.381359   
-38.239265   -1.042029   0.004311   0.220934   0.006851   0.000015   37.733893   
-37.491368   -0.859701   0.003503   0.072486   0.005574   -0.000001   37.071500   
-36.742953   -0.707782   0.002898   -0.051263   0.004522   0.000002   36.396171   
-35.994245   -0.581087   0.002367   -0.153852   0.003663   -0.000000   35.709706   
-35.245292   -0.475177   0.001935   -0.238443   0.002959   -0.000001   35.013728   
-34.496186   -0.386354   0.001564   -0.307785   0.002379   -0.000001   34.309711   
-33.746942   -0.311452   0.001277   -0.364228   0.001901   -0.000006   33.598967   
-32.997676   -0.247853   0.000973   -0.409763   0.001504   0.000008   32.882675   
-32.248302   -0.193155   0.000867   -0.446062   0.001179   -0.000030   32.161933   
-31.499200   -0.145607   0.000439   -0.474545   0.000917   0.000062   31.437659   
-30.749890   -0.102877   0.000828   -0.496425   0.000746   -0.000155   30.711068   
-30.001751   -0.064336   -0.000407   -0.512795   0.000667   0.000333   29.982616   
-29.252960   -0.025969   0.001845   -0.524657   0.000821   -0.000716   29.255047   
-28.507998   0.010149   -0.002638   -0.533067   0.001234   0.001423   28.526740   
-27.761395   0.055202   0.006554   -0.539067   0.002393   -0.002872   27.808046   
-27.019313   0.102102   -0.006474   -0.544165   0.004371   0.003844   27.083988   
-26.251330   0.185120   0.010126   -0.550068   0.008485   -0.002253   26.367216   
-25.171481   0.410819   0.086508   -0.561334   0.015352   -0.064243   25.442321   
-25.558877   -0.575888   -2.392396   -0.545639   -0.009247   1.181875   24.619551   
-26.622953   -1.722795   -4.899990   -0.521989   -0.037651   2.468832   24.375790   
-40.929015   -0.817049   -0.520840   6.219741   -0.139268   0.242627   41.680084   
-46.558829   -10.272473   -10.612335   10.157229   -0.084559   -3.236771   43.471562   
-41.905510   0.170097   -0.445391   3.895104   -0.128322   0.024590   42.531539   
-42.562028   1.292731   0.487925   1.961428   -0.123402   0.187354   43.621232   
-43.110970   0.993033   -0.212613   1.179386   -0.076552   -0.126326   43.568938   
-43.086966   0.958978   0.202105   0.832398   -0.049420   0.070016   43.698624   
-42.972728   0.673268   -0.014872   0.616204   -0.020808   -0.036696   43.320526   
-42.512096   0.564110   0.089672   0.456649   -0.012383   0.017041   42.849006   
-41.964798   0.426850   0.029927   0.325535   -0.002714   -0.008531   42.198885   
-41.295446   0.351640   0.049260   0.215331   -0.001814   0.003388   41.498766   
-40.592348   0.280776   0.030876   0.122237   0.000614   -0.001652   40.749570   
-39.852962   0.231719   0.030816   0.043754   0.000092   0.000561   39.984877   
-39.103303   0.189541   0.023466   -0.022090   0.000513   -0.000178   39.210235   
-38.344616   0.156612   0.020339   -0.077129   0.000083   0.000168   38.433612   
-37.584034   0.128990   0.016407   -0.122940   0.000102   0.000139   37.657541   
-36.822397   0.106345   0.013617   -0.160934   -0.000103   0.000198   36.883578   
-36.061459   0.087408   0.011119   -0.192321   -0.000104   0.000238   36.112364   
-35.301469   0.071584   0.009084   -0.218131   -0.000194   0.000262   35.343898   
-34.542785   0.058266   0.007353   -0.239259   -0.000136   0.000296   34.578132   
-33.785277   0.047014   0.006002   -0.256398   -0.000232   0.000295   33.814740   
-33.029351   0.037255   0.004542   -0.270238   -0.000034   0.000376   33.053591   
-32.274116   0.029060   0.004203   -0.281122   -0.000285   0.000201   32.294438   
-31.521898   0.020778   0.001685   -0.289748   0.000318   0.000725   31.537137   
-30.768261   0.015003   0.004898   -0.295952   -0.000373   -0.000591   30.782489   
-30.024081   0.003945   -0.004402   -0.300762   0.001409   0.002649   30.028380   
-29.269623   0.002664   0.014489   -0.303296   -0.000270   -0.004918   29.282924   
-28.547810   -0.024865   -0.025783   -0.304553   0.004750   0.012038   28.527380   
-27.782408   -0.008891   0.058539   -0.304344   0.001377   -0.024756   27.812366   
-27.103121   -0.095131   -0.100556   -0.295894   0.015055   0.049252   27.010345   
-26.232604   -0.005387   0.190139   -0.283517   0.009149   -0.084044   26.330761   
-24.926986   0.090129   -0.089360   -0.137049   0.030014   0.001681   24.931103   
-27.292816   -1.612249   -4.522240   0.031535   0.156950   2.439993   25.310753   
-23.465015   0.326130   -0.020296   0.013017   0.037185   -0.075341   23.620296   
-46.018727   -19.722311   -19.722311   -15.602744   0.000000   2.139746   37.888967   
-34.383777   -0.850854   0.352469   -3.254309   0.228970   5.297813   35.810406   
-32.403910   0.846043   0.344748   -1.326827   0.121578   3.254344   33.559510   
-33.584887   0.700482   0.151002   -0.587566   0.009270   2.285726   34.258706   
-33.976739   0.625199   0.105799   -0.403289   -0.040744   1.567247   34.459445   
-34.272366   0.473115   0.134880   -0.288149   -0.059083   1.132489   34.636943   
-34.143948   0.361644   0.073546   -0.227560   -0.063109   0.763543   34.390321   
-33.846766   0.290802   0.088502   -0.168412   -0.054907   0.504785   34.049479   
-33.414667   0.227772   0.056781   -0.119302   -0.048389   0.287431   33.561704   
-32.907519   0.188377   0.056611   -0.075209   -0.039087   0.120716   33.031199   
-32.361320   0.152400   0.041912   -0.037542   -0.032583   -0.018452   32.458747   
-31.787858   0.126741   0.037264   -0.005415   -0.026078   -0.130175   31.870786   
-31.202845   0.104225   0.029635   0.021640   -0.021346   -0.222981   31.272271   
-30.608948   0.086520   0.025030   0.044280   -0.017163   -0.298849   30.669248   
-30.011642   0.071441   0.020427   0.063126   -0.013976   -0.361604   30.064342   
-29.411800   0.059036   0.016896   0.078744   -0.011288   -0.413145   29.458804   
-28.811113   0.048590   0.013846   0.091632   -0.009170   -0.455561   28.853578   
-28.209901   0.039844   0.011326   0.102220   -0.007392   -0.490300   28.248823   
-27.608717   0.032457   0.009195   0.110877   -0.005978   -0.518626   27.644818   
-27.007554   0.026231   0.007460   0.117904   -0.004732   -0.541606   27.041454   
-26.406953   0.020789   0.005801   0.123558   -0.003808   -0.559904   26.438911   
-25.806347   0.016313   0.004876   0.128070   -0.002820   -0.574511   25.837066   
-25.207398   0.011663   0.002892   0.131556   -0.002354   -0.585179   25.236068   
-24.607922   0.008584   0.003780   0.134364   -0.001371   -0.593729   24.636677   
-24.012983   0.002644   -0.000979   0.136229   -0.001654   -0.597347   24.037252   
-23.416833   0.001199   0.005837   0.138187   -0.000485   -0.601664   23.444747   
-22.830349   -0.010933   -0.009149   0.138874   -0.002451   -0.595507   22.844873   
-22.247236   -0.011027   0.015359   0.140897   -0.001599   -0.597734   22.274824   
-21.667608   -0.038430   -0.025666   0.141261   -0.007197   -0.573146   21.659711   
-21.125056   -0.047824   0.039802   0.139024   -0.011895   -0.588845   21.147173   
-20.436338   -0.057509   0.000677   0.124046   -0.040638   -0.594055   20.435156   
-20.126308   -0.030511   0.028833   -0.045281   -0.160606   -0.575854   20.152308   
-18.890229   -0.792423   -5.933027   -0.196577   -0.306821   1.482869   16.368194   
-38.956359   -13.183974   -8.390381   -2.910568   0.251661   -3.266256   30.214431   
-38.534573   -10.807238   -4.236816   -2.860710   0.392378   -1.948376   32.608907   
-37.539732   -7.412813   -0.016646   -2.737126   0.532092   -0.573263   34.797076   
-36.674092   -5.750658   0.048210   -2.546562   0.491846   -0.504885   34.508923   
-36.046123   -4.625309   0.026090   -2.287651   0.407520   -0.473985   34.240402   
-35.403110   -3.769815   0.016458   -1.994079   0.322445   -0.424243   33.880292   
-34.790586   -3.100877   0.017377   -1.691672   0.250202   -0.379188   33.499767   
-34.185160   -2.563560   0.011338   -1.397725   0.193179   -0.349297   33.083323   
-33.586473   -2.122768   0.011339   -1.123690   0.149612   -0.325612   32.649450   
-32.989281   -1.759674   0.008227   -0.875902   0.116673   -0.308617   32.192588   
-32.391820   -1.457871   0.007481   -0.657035   0.091785   -0.294635   31.718262   
-31.794092   -1.207377   0.005867   -0.467098   0.072821   -0.283656   31.226585   
-31.195552   -0.998776   0.005042   -0.304484   0.058224   -0.274469   30.720063   
-30.596689   -0.825297   0.004096   -0.166701   0.046841   -0.266954   30.200172   
-29.997411   -0.680824   0.003425   -0.050907   0.037859   -0.260672   29.668640   
-29.397968   -0.560508   0.002810   0.045759   0.030683   -0.255482   29.126990   
-28.798358   -0.460147   0.002318   0.125986   0.024887   -0.251176   28.576623   
-28.198680   -0.376271   0.001893   0.192196   0.020154   -0.247628   28.018830   
-27.598934   -0.305918   0.001548   0.246510   0.016245   -0.244720   27.454752   
-26.999183   -0.246619   0.001236   0.290751   0.012972   -0.242346   26.885429   
-26.399400   -0.196223   0.001016   0.326468   0.010185   -0.240450   26.311788   
-25.799699   -0.152988   0.000731   0.354968   0.007756   -0.238919   25.734635   
-25.200013   -0.115210   0.000678   0.377359   0.005575   -0.237802   25.154848   
-24.600571   -0.081689   0.000261   0.394594   0.003537   -0.236889   24.572920   
-24.001400   -0.050727   0.000546   0.407510   0.001545   -0.236509   23.990257   
-23.402618   -0.021427   -0.000310   0.416881   -0.000489   -0.236093   23.406491   
-22.805483   0.008499   0.000577   0.423426   -0.002628   -0.236784   22.825512   
-22.207706   0.041193   -0.000596   0.427883   -0.004870   -0.237352   22.244216   
-21.615797   0.080533   0.001251   0.430978   -0.007092   -0.243751   21.673824   
-21.006247   0.142713   0.012421   0.433725   -0.008714   -0.270374   21.102852   
-20.453090   0.205003   0.006635   0.436925   -0.006460   -0.318173   20.581162   
-19.904671   -0.201714   -1.554340   0.439214   0.023292   0.088458   19.232742   
-19.591979   -0.631026   -3.104001   0.439762   0.050248   0.523325   18.112508   
-41.280915   -14.354364   -8.804104   -0.000000   0.000000   -4.039754   31.772118   
-40.965282   -12.431053   -4.499360   -0.000000   0.000000   -2.576585   34.118618   
-39.623232   -9.754460   -0.095198   -0.000000   0.000000   -0.999012   35.739889   
-37.961908   -8.378585   0.016040   -0.000000   0.000000   -0.853230   34.591679   
-36.745589   -7.171505   0.011326   -0.000000   0.000000   -0.780981   33.777277   
-35.697686   -6.063964   0.011259   -0.000000   0.000000   -0.685740   33.118682   