<VTKFile type="UnstructuredGrid"  version="0.1"   > 
<UnstructuredGrid> 
<Piece  NumberOfPoints="  51" NumberOfCells=" 32"> 
<Points> 
<DataArray  type="Float64"  NumberOfComponents="3"  format="ascii" > 
160.000000 0.000000 10.000000 
170.000000 0.000000 10.000000 
180.000000 0.000000 10.000000 
190.000000 0.000000 10.000000 
200.000000 0.000000 10.000000 
210.000000 0.000000 10.000000 
220.000000 0.000000 10.000000 
230.000000 0.000000 10.000000 
240.000000 0.000000 10.000000 
250.000000 0.000000 10.000000 
260.000000 0.000000 10.000000 
270.000000 0.000000 10.000000 
280.000000 0.000000 10.000000 
290.000000 0.000000 10.000000 
300.000000 0.000000 10.000000 
310.000000 0.000000 10.000000 
320.000000 0.000000 10.000000 
160.000000 40.000000 10.000000 
170.000000 40.000000 10.000000 
180.000000 40.000000 10.000000 
190.000000 40.000000 10.000000 
200.000000 40.000000 10.000000 
210.000000 40.000000 10.000000 
220.000000 40.000000 10.000000 
230.000000 40.000000 10.000000 
240.000000 40.000000 10.000000 
250.000000 40.000000 10.000000 
260.000000 40.000000 10.000000 
270.000000 40.000000 10.000000 
280.000000 40.000000 10.000000 
290.000000 40.000000 10.000000 
300.000000 40.000000 10.000000 
310.000000 40.000000 10.000000 
320.000000 40.000000 10.000000 
160.000000 80.000000 10.000000 
170.000000 80.000000 10.000000 
180.000000 80.000000 10.000000 
190.000000 80.000000 10.000000 
200.000000 80.000000 10.000000 
210.000000 80.000000 10.000000 
220.000000 80.000000 10.000000 
230.000000 80.000000 10.000000 
240.000000 80.000000 10.000000 
250.000000 80.000000 10.000000 
260.000000 80.000000 10.000000 
270.000000 80.000000 10.000000 
280.000000 80.000000 10.000000 
290.000000 80.000000 10.000000 
300.000000 80.000000 10.000000 
310.000000 80.000000 10.000000 
320.000000 80.000000 10.000000 
</DataArray> 
</Points> 
<Cells> 
<DataArray  type="Int32"  Name="connectivity"  format="ascii"> 
0 1 18 17 
1 2 19 18 
2 3 20 19 
3 4 21 20 
4 5 22 21 
5 6 23 22 
6 7 24 23 
7 8 25 24 
8 9 26 25 
9 10 27 26 
10 11 28 27 
11 12 29 28 
12 13 30 29 
13 14 31 30 
14 15 32 31 
15 16 33 32 
17 18 35 34 
18 19 36 35 
19 20 37 36 
20 21 38 37 
21 22 39 38 
22 23 40 39 
23 24 41 40 
24 25 42 41 
25 26 43 42 
26 27 44 43 
27 28 45 44 
28 29 46 45 
29 30 47 46 
30 31 48 47 
31 32 49 48 
32 33 50 49 
</DataArray> 
<DataArray  type="Int32"  Name="offsets"  format="ascii"> 
4 
8 
12 
16 
20 
24 
28 
32 
36 
40 
44 
48 
52 
56 
60 
64 
68 
72 
76 
80 
84 
88 
92 
96 
100 
104 
108 
112 
116 
120 
124 
128 
</DataArray> 
<DataArray  type="UInt8"  Name="types"  format="ascii"> 
9 
9 
9 
9 
9 
9 
9 
9 
9 
9 
9 
9 
9 
9 
9 
9 
9 
9 
9 
9 
9 
9 
9 
9 
9 
9 
9 
9 
9 
9 
9 
9 
</DataArray> 
</Cells> 
<PointData  Vectors="sigma"> 
<DataArray  type="Float64"  Name="sigma" NumberOfComponents="3" format="ascii"> 
0.000000   0.000000   0.000000   
0.000000   0.000000   0.000000   
0.000000   0.000000   0.000000   
0.000000   0.000000   0.000000   
0.000000   0.000000   0.000000   
0.000000   0.000000   0.000000   
0.000000   0.000000   0.000000   
0.000000   0.000000   0.000000   
0.000000   0.000000   0.000000   
0.000000   0.000000   0.000000   
0.000000   0.000000   0.000000   
0.000000   0.000000   0.000000   
0.000000   0.000000   0.000000   
0.000000   0.000000   0.000000   
0.000000   0.000000   0.000000   
0.000000   0.000000   0.000000   
0.000000   0.000000   0.000000   
0.000000   0.000000   0.000000   
0.000000   0.000000   0.000000   
0.000000   0.000000   0.000000   
0.000000   0.000000   0.000000   
0.000000   0.000000   0.000000   
0.000000   0.000000   0.000000   
0.000000   0.000000   0.000000   
0.000000   0.000000   0.000000   
0.000000   0.000000   0.000000   
0.000000   0.000000   0.000000   
0.000000   0.000000   0.000000   
0.000000   0.000000   0.000000   
0.000000   0.000000   0.000000   
0.000000   0.000000   0.000000   
0.000000   0.000000   0.000000   
0.000000   0.000000   0.000000   
0.000000   0.000000   0.000000   
0.000000   0.000000   0.000000   
0.000000   0.000000   0.000000   
0.000000   0.000000   0.000000   
0.000000   0.000000   0.000000   
0.000000   0.000000   0.000000   
0.000000   0.000000   0.000000   
0.000000   0.000000   0.000000   
0.000000   0.000000   0.000000   
0.000000   0.000000   0.000000   
0.000000   0.000000   0.000000   
0.000000   0.000000   0.000000   
0.000000   0.000000   0.000000   
0.000000   0.000000   0.000000   
0.000000   0.000000   0.000000   
0.000000   0.000000   0.000000   
0.000000   0.000000   0.000000   
0.000000   0.000000   0.000000   
</DataArray> 
<DataArray  type="Float64"  Name="U" NumberOfComponents="3" format="ascii"> 
  0.00000000     0.00000000   -49.63289067   
  0.00000000     0.00000000   -55.46227211   
  0.00000000     0.00000000   -61.50215538   
  0.00000000     0.00000000   -67.75371783   
  0.00000000     0.00000000   -74.19868581   
  0.00000000     0.00000000   -80.82388697   
  0.00000000     0.00000000   -87.61372100   
  0.00000000     0.00000000   -94.55326550   
  0.00000000     0.00000000   -101.62764768   
  0.00000000     0.00000000   -108.82168244   
  0.00000000     0.00000000   -116.12035581   
  0.00000000     0.00000000   -123.50844665   
  0.00000000     0.00000000   -130.97068931   
  0.00000000     0.00000000   -138.49169756   
  0.00000000     0.00000000   -146.05597353   
  0.00000000     0.00000000   -153.64749572   
  0.00000000     0.00000000   -161.24853020   
  0.00000000     0.00000000   -50.23521861   
  0.00000000     0.00000000   -56.01378139   
  0.00000000     0.00000000   -62.01534743   
  0.00000000     0.00000000   -68.22742461   
  0.00000000     0.00000000   -74.63481118   
  0.00000000     0.00000000   -81.22260488   
  0.00000000     0.00000000   -87.97568869   
  0.00000000     0.00000000   -94.87900035   
  0.00000000     0.00000000   -101.91755245   
  0.00000000     0.00000000   -109.07636016   
  0.00000000     0.00000000   -116.34053539   
  0.00000000     0.00000000   -123.69525537   
  0.00000000     0.00000000   -131.12581434   
  0.00000000     0.00000000   -138.61765566   
  0.00000000     0.00000000   -146.15638360   
  0.00000000     0.00000000   -153.72767215   
  0.00000000     0.00000000   -161.31687646   
  0.00000000     0.00000000   -49.63289069   
  0.00000000     0.00000000   -55.46227212   
  0.00000000     0.00000000   -61.50215539   
  0.00000000     0.00000000   -67.75371784   
  0.00000000     0.00000000   -74.19868583   
  0.00000000     0.00000000   -80.82388699   
  0.00000000     0.00000000   -87.61372101   
  0.00000000     0.00000000   -94.55326552   
  0.00000000     0.00000000   -101.62764770   
  0.00000000     0.00000000   -108.82168245   
  0.00000000     0.00000000   -116.12035583   
  0.00000000     0.00000000   -123.50844667   
  0.00000000     0.00000000   -130.97068933   
  0.00000000     0.00000000   -138.49169757   
  0.00000000     0.00000000   -146.05597355   
  0.00000000     0.00000000   -153.64749573   
  0.00000000     0.00000000   -161.24853022   
</DataArray> 
</PointData> 
</Piece> 
</UnstructuredGrid> 
</VTKFile> 
