<VTKFile type="UnstructuredGrid"  version="0.1"   > 
<UnstructuredGrid> 
<Piece  NumberOfPoints="  990" NumberOfCells=" 640"> 
<Points> 
<DataArray  type="Float64"  NumberOfComponents="3"  format="ascii" > 
0.000000 0.000000 0.000000 
3.125000 0.000000 0.000000 
6.250000 0.000000 0.000000 
9.375000 0.000000 0.000000 
12.500000 0.000000 0.000000 
15.625000 0.000000 0.000000 
18.750000 0.000000 0.000000 
21.875000 0.000000 0.000000 
25.000000 0.000000 0.000000 
28.125000 0.000000 0.000000 
31.250000 0.000000 0.000000 
34.375000 0.000000 0.000000 
37.500000 0.000000 0.000000 
40.625000 0.000000 0.000000 
43.750000 0.000000 0.000000 
46.875000 0.000000 0.000000 
50.000000 0.000000 0.000000 
53.125000 0.000000 0.000000 
56.250000 0.000000 0.000000 
59.375000 0.000000 0.000000 
62.500000 0.000000 0.000000 
65.625000 0.000000 0.000000 
68.750000 0.000000 0.000000 
71.875000 0.000000 0.000000 
75.000000 0.000000 0.000000 
78.125000 0.000000 0.000000 
81.250000 0.000000 0.000000 
84.375000 0.000000 0.000000 
87.500000 0.000000 0.000000 
90.625000 0.000000 0.000000 
93.750000 0.000000 0.000000 
96.875000 0.000000 0.000000 
100.000000 0.000000 0.000000 
0.000000 20.000000 0.000000 
3.125000 20.000000 0.000000 
6.250000 20.000000 0.000000 
9.375000 20.000000 0.000000 
12.500000 20.000000 0.000000 
15.625000 20.000000 0.000000 
18.750000 20.000000 0.000000 
21.875000 20.000000 0.000000 
25.000000 20.000000 0.000000 
28.125000 20.000000 0.000000 
31.250000 20.000000 0.000000 
34.375000 20.000000 0.000000 
37.500000 20.000000 0.000000 
40.625000 20.000000 0.000000 
43.750000 20.000000 0.000000 
46.875000 20.000000 0.000000 
50.000000 20.000000 0.000000 
53.125000 20.000000 0.000000 
56.250000 20.000000 0.000000 
59.375000 20.000000 0.000000 
62.500000 20.000000 0.000000 
65.625000 20.000000 0.000000 
68.750000 20.000000 0.000000 
71.875000 20.000000 0.000000 
75.000000 20.000000 0.000000 
78.125000 20.000000 0.000000 
81.250000 20.000000 0.000000 
84.375000 20.000000 0.000000 
87.500000 20.000000 0.000000 
90.625000 20.000000 0.000000 
93.750000 20.000000 0.000000 
96.875000 20.000000 0.000000 
100.000000 20.000000 0.000000 
0.000000 40.000000 0.000000 
3.125000 40.000000 0.000000 
6.250000 40.000000 0.000000 
9.375000 40.000000 0.000000 
12.500000 40.000000 0.000000 
15.625000 40.000000 0.000000 
18.750000 40.000000 0.000000 
21.875000 40.000000 0.000000 
25.000000 40.000000 0.000000 
28.125000 40.000000 0.000000 
31.250000 40.000000 0.000000 
34.375000 40.000000 0.000000 
37.500000 40.000000 0.000000 
40.625000 40.000000 0.000000 
43.750000 40.000000 0.000000 
46.875000 40.000000 0.000000 
50.000000 40.000000 0.000000 
53.125000 40.000000 0.000000 
56.250000 40.000000 0.000000 
59.375000 40.000000 0.000000 
62.500000 40.000000 0.000000 
65.625000 40.000000 0.000000 
68.750000 40.000000 0.000000 
71.875000 40.000000 0.000000 
75.000000 40.000000 0.000000 
78.125000 40.000000 0.000000 
81.250000 40.000000 0.000000 
84.375000 40.000000 0.000000 
87.500000 40.000000 0.000000 
90.625000 40.000000 0.000000 
93.750000 40.000000 0.000000 
96.875000 40.000000 0.000000 
100.000000 40.000000 0.000000 
0.000000 60.000000 0.000000 
3.125000 60.000000 0.000000 
6.250000 60.000000 0.000000 
9.375000 60.000000 0.000000 
12.500000 60.000000 0.000000 
15.625000 60.000000 0.000000 
18.750000 60.000000 0.000000 
21.875000 60.000000 0.000000 
25.000000 60.000000 0.000000 
28.125000 60.000000 0.000000 
31.250000 60.000000 0.000000 
34.375000 60.000000 0.000000 
37.500000 60.000000 0.000000 
40.625000 60.000000 0.000000 
43.750000 60.000000 0.000000 
46.875000 60.000000 0.000000 
50.000000 60.000000 0.000000 
53.125000 60.000000 0.000000 
56.250000 60.000000 0.000000 
59.375000 60.000000 0.000000 
62.500000 60.000000 0.000000 
65.625000 60.000000 0.000000 
68.750000 60.000000 0.000000 
71.875000 60.000000 0.000000 
75.000000 60.000000 0.000000 
78.125000 60.000000 0.000000 
81.250000 60.000000 0.000000 
84.375000 60.000000 0.000000 
87.500000 60.000000 0.000000 
90.625000 60.000000 0.000000 
93.750000 60.000000 0.000000 
96.875000 60.000000 0.000000 
100.000000 60.000000 0.000000 
0.000000 80.000000 0.000000 
3.125000 80.000000 0.000000 
6.250000 80.000000 0.000000 
9.375000 80.000000 0.000000 
12.500000 80.000000 0.000000 
15.625000 80.000000 0.000000 
18.750000 80.000000 0.000000 
21.875000 80.000000 0.000000 
25.000000 80.000000 0.000000 
28.125000 80.000000 0.000000 
31.250000 80.000000 0.000000 
34.375000 80.000000 0.000000 
37.500000 80.000000 0.000000 
40.625000 80.000000 0.000000 
43.750000 80.000000 0.000000 
46.875000 80.000000 0.000000 
50.000000 80.000000 0.000000 
53.125000 80.000000 0.000000 
56.250000 80.000000 0.000000 
59.375000 80.000000 0.000000 
62.500000 80.000000 0.000000 
65.625000 80.000000 0.000000 
68.750000 80.000000 0.000000 
71.875000 80.000000 0.000000 
75.000000 80.000000 0.000000 
78.125000 80.000000 0.000000 
81.250000 80.000000 0.000000 
84.375000 80.000000 0.000000 
87.500000 80.000000 0.000000 
90.625000 80.000000 0.000000 
93.750000 80.000000 0.000000 
96.875000 80.000000 0.000000 
100.000000 80.000000 0.000000 
0.000000 0.000000 2.000000 
3.125000 0.000000 2.000000 
6.250000 0.000000 2.000000 
9.375000 0.000000 2.000000 
12.500000 0.000000 2.000000 
15.625000 0.000000 2.000000 
18.750000 0.000000 2.000000 
21.875000 0.000000 2.000000 
25.000000 0.000000 2.000000 
28.125000 0.000000 2.000000 
31.250000 0.000000 2.000000 
34.375000 0.000000 2.000000 
37.500000 0.000000 2.000000 
40.625000 0.000000 2.000000 
43.750000 0.000000 2.000000 
46.875000 0.000000 2.000000 
50.000000 0.000000 2.000000 
53.125000 0.000000 2.000000 
56.250000 0.000000 2.000000 
59.375000 0.000000 2.000000 
62.500000 0.000000 2.000000 
65.625000 0.000000 2.000000 
68.750000 0.000000 2.000000 
71.875000 0.000000 2.000000 
75.000000 0.000000 2.000000 
78.125000 0.000000 2.000000 
81.250000 0.000000 2.000000 
84.375000 0.000000 2.000000 
87.500000 0.000000 2.000000 
90.625000 0.000000 2.000000 
93.750000 0.000000 2.000000 
96.875000 0.000000 2.000000 
100.000000 0.000000 2.000000 
0.000000 20.000000 2.000000 
3.125000 20.000000 2.000000 
6.250000 20.000000 2.000000 
9.375000 20.000000 2.000000 
12.500000 20.000000 2.000000 
15.625000 20.000000 2.000000 
18.750000 20.000000 2.000000 
21.875000 20.000000 2.000000 
25.000000 20.000000 2.000000 
28.125000 20.000000 2.000000 
31.250000 20.000000 2.000000 
34.375000 20.000000 2.000000 
37.500000 20.000000 2.000000 
40.625000 20.000000 2.000000 
43.750000 20.000000 2.000000 
46.875000 20.000000 2.000000 
50.000000 20.000000 2.000000 
53.125000 20.000000 2.000000 
56.250000 20.000000 2.000000 
59.375000 20.000000 2.000000 
62.500000 20.000000 2.000000 
65.625000 20.000000 2.000000 
68.750000 20.000000 2.000000 
71.875000 20.000000 2.000000 
75.000000 20.000000 2.000000 
78.125000 20.000000 2.000000 
81.250000 20.000000 2.000000 
84.375000 20.000000 2.000000 
87.500000 20.000000 2.000000 
90.625000 20.000000 2.000000 
93.750000 20.000000 2.000000 
96.875000 20.000000 2.000000 
100.000000 20.000000 2.000000 
0.000000 40.000000 2.000000 
3.125000 40.000000 2.000000 
6.250000 40.000000 2.000000 
9.375000 40.000000 2.000000 
12.500000 40.000000 2.000000 
15.625000 40.000000 2.000000 
18.750000 40.000000 2.000000 
21.875000 40.000000 2.000000 
25.000000 40.000000 2.000000 
28.125000 40.000000 2.000000 
31.250000 40.000000 2.000000 
34.375000 40.000000 2.000000 
37.500000 40.000000 2.000000 
40.625000 40.000000 2.000000 
43.750000 40.000000 2.000000 
46.875000 40.000000 2.000000 
50.000000 40.000000 2.000000 
53.125000 40.000000 2.000000 
56.250000 40.000000 2.000000 
59.375000 40.000000 2.000000 
62.500000 40.000000 2.000000 
65.625000 40.000000 2.000000 
68.750000 40.000000 2.000000 
71.875000 40.000000 2.000000 
75.000000 40.000000 2.000000 
78.125000 40.000000 2.000000 
81.250000 40.000000 2.000000 
84.375000 40.000000 2.000000 
87.500000 40.000000 2.000000 
90.625000 40.000000 2.000000 
93.750000 40.000000 2.000000 
96.875000 40.000000 2.000000 
100.000000 40.000000 2.000000 
0.000000 60.000000 2.000000 
3.125000 60.000000 2.000000 
6.250000 60.000000 2.000000 
9.375000 60.000000 2.000000 
12.500000 60.000000 2.000000 
15.625000 60.000000 2.000000 
18.750000 60.000000 2.000000 
21.875000 60.000000 2.000000 
25.000000 60.000000 2.000000 
28.125000 60.000000 2.000000 
31.250000 60.000000 2.000000 
34.375000 60.000000 2.000000 
37.500000 60.000000 2.000000 
40.625000 60.000000 2.000000 
43.750000 60.000000 2.000000 
46.875000 60.000000 2.000000 
50.000000 60.000000 2.000000 
53.125000 60.000000 2.000000 
56.250000 60.000000 2.000000 
59.375000 60.000000 2.000000 
62.500000 60.000000 2.000000 
65.625000 60.000000 2.000000 
68.750000 60.000000 2.000000 
71.875000 60.000000 2.000000 
75.000000 60.000000 2.000000 
78.125000 60.000000 2.000000 
81.250000 60.000000 2.000000 
84.375000 60.000000 2.000000 
87.500000 60.000000 2.000000 
90.625000 60.000000 2.000000 
93.750000 60.000000 2.000000 
96.875000 60.000000 2.000000 
100.000000 60.000000 2.000000 
0.000000 80.000000 2.000000 
3.125000 80.000000 2.000000 
6.250000 80.000000 2.000000 
9.375000 80.000000 2.000000 
12.500000 80.000000 2.000000 
15.625000 80.000000 2.000000 
18.750000 80.000000 2.000000 
21.875000 80.000000 2.000000 
25.000000 80.000000 2.000000 
28.125000 80.000000 2.000000 
31.250000 80.000000 2.000000 
34.375000 80.000000 2.000000 
37.500000 80.000000 2.000000 
40.625000 80.000000 2.000000 
43.750000 80.000000 2.000000 
46.875000 80.000000 2.000000 
50.000000 80.000000 2.000000 
53.125000 80.000000 2.000000 
56.250000 80.000000 2.000000 
59.375000 80.000000 2.000000 
62.500000 80.000000 2.000000 
65.625000 80.000000 2.000000 
68.750000 80.000000 2.000000 
71.875000 80.000000 2.000000 
75.000000 80.000000 2.000000 
78.125000 80.000000 2.000000 
81.250000 80.000000 2.000000 
84.375000 80.000000 2.000000 
87.500000 80.000000 2.000000 
90.625000 80.000000 2.000000 
93.750000 80.000000 2.000000 
96.875000 80.000000 2.000000 
[...]
<PointData  Vectors="sigma"> 
<DataArray  type="Float64"  Name="sigma" NumberOfComponents="7" format="ascii"> 
-45.621793   -19.552197   -19.552197   -9.691955   0.000000   -3.789619   31.693997   
-37.780176   -7.926914   1.026458   -8.475374   0.767536   0.220419   38.324213   
-42.368334   -8.664019   -2.276629   -6.067101   1.134349   1.377513   39.196309   
-44.618306   -8.378663   -2.413975   -4.782729   1.426734   0.884830   40.820307   
-45.642898   -8.113249   -2.689271   -3.940481   1.583924   0.698142   41.491180   
-45.911831   -7.723396   -2.639089   -3.333781   1.683181   0.539669   41.769411   
-45.918745   -7.378595   -2.578810   -2.850070   1.748065   0.425033   41.838403   
-45.750187   -7.064575   -2.508219   -2.437287   1.792064   0.329845   41.758879   
-45.457645   -6.776686   -2.438228   -2.070460   1.822176   0.249886   41.565577   
-45.075032   -6.510555   -2.369495   -1.737734   1.842587   0.181617   41.287423   
-44.629914   -6.264942   -2.303388   -1.433128   1.855828   0.122885   40.948060   
-44.143453   -6.039414   -2.240701   -1.153205   1.863474   0.071963   40.565917   
-43.631540   -5.833762   -2.181987   -0.895531   1.866524   0.027470   40.154830   
-43.105769   -5.647705   -2.127563   -0.657985   1.865632   -0.011740   39.724893   
-42.574382   -5.480827   -2.077576   -0.438479   1.861245   -0.046631   39.283287   
-42.043048   -5.332602   -2.032051   -0.234854   1.853673   -0.078029   38.834969   
-41.515494   -5.202446   -1.990929   -0.044858   1.843140   -0.106656   38.383228   
-40.994000   -5.089792   -1.954097   0.133855   1.829799   -0.133157   37.930115   
-40.479779   -4.994168   -1.921412   0.303727   1.813741   -0.158117   37.476757   
-39.973270   -4.915294   -1.892726   0.467323   1.794978   -0.182092   37.023587   
-39.474371   -4.853203   -1.867907   0.627398   1.773423   -0.205623   36.570515   
-38.982626   -4.808407   -1.846859   0.787019   1.748841   -0.229271   36.117048   
-38.497389   -4.782130   -1.829555   0.949771   1.720772   -0.253650   35.662378   
-38.017928   -4.776633   -1.816079   1.120065   1.688412   -0.279500   35.205412   
-37.543414   -4.795672   -1.806685   1.303616   1.650422   -0.307806   34.744703   
-37.072559   -4.845089   -1.801880   1.508117   1.604631   -0.340031   34.278128   
-36.602116   -4.933390   -1.802415   1.744230   1.547586   -0.378701   33.801808   
-36.119200   -5.070432   -1.807232   2.026763   1.473722   -0.428966   33.305491   
-35.563584   -5.254701   -1.801083   2.376508   1.374248   -0.503578   32.750137   
-34.673914   -5.412702   -1.692875   2.811255   1.229608   -0.628483   31.973701   
-32.792857   -5.331435   -1.304257   3.363946   1.035264   -0.826992   30.530374   
-28.949629   -4.774473   -0.563910   3.463829   0.646991   -0.660389   27.289862   
-28.955606   -6.937947   -6.027706   3.069793   1.907178   0.449295   23.354565   
-58.303791   -24.987339   -24.987339   -2.063152   0.000000   -11.010124   38.554173   
-45.785292   -11.777561   -0.035506   -2.533546   0.008728   -2.238642   41.601595   
-45.642118   -11.176664   -2.323822   -2.687396   -0.052684   -0.212079   40.157889   
-45.898253   -10.240128   -1.950592   -2.615643   -0.064895   -0.375019   40.992532   
-45.979208   -9.666014   -2.253318   -2.462175   -0.051168   -0.309017   41.102411   
-45.581830   -8.990048   -2.233047   -2.273971   -0.029372   -0.288103   40.964647   
-45.133818   -8.397921   -2.211496   -2.068160   -0.003316   -0.256437   40.752230   
-44.675303   -7.876138   -2.178644   -1.853496   0.024355   -0.230752   40.512680   
-44.218425   -7.418172   -2.146411   -1.636035   0.052066   -0.208976   40.252872   
-43.761091   -7.014103   -2.114270   -1.420488   0.078651   -0.190645   39.974230   
-43.302329   -6.657232   -2.082851   -1.210559   0.103314   -0.174848   39.677555   
-42.841651   -6.342355   -2.052340   -1.008953   0.125540   -0.160994   39.363747   
-42.379036   -6.065330   -2.022861   -0.817398   0.145037   -0.148654   39.033751   
-41.914654   -5.822706   -1.994444   -0.636748   0.161671   -0.137531   38.688475   
-41.448712   -5.611542   -1.967068   -0.467131   0.175423   -0.127405   38.328738   
-40.981355   -5.429309   -1.940681   -0.308120   0.186343   -0.118106   37.955220   
-40.512595   -5.273833   -1.915211   -0.158899   0.194533   -0.109494   37.568426   
-40.042257   -5.143260   -1.890574   -0.018404   0.200116   -0.101446   37.168647   
-39.569921   -5.036034   -1.866672   0.114544   0.203237   -0.093842   36.755904   
-39.094857   -4.950882   -1.843382   0.241136   0.204055   -0.086561   36.329876   
-38.615935   -4.886799   -1.820544   0.362477   0.202758   -0.079460   35.889802   
-38.131528   -4.843050   -1.797931   0.479503   0.199581   -0.072354   35.434363   
-37.639413   -4.819203   -1.775210   0.592899   0.194850   -0.064980   34.961552   
-37.136729   -4.815212   -1.751879   0.703021   0.189037   -0.056925   34.468563   
-36.620082   -4.831619   -1.727193   0.809817   0.182869   -0.047531   33.951775   
-36.085996   -4.869964   -1.700067   0.912741   0.177477   -0.035740   33.406977   
-35.531574   -4.933357   -1.668758   1.010648   0.174637   -0.019982   32.829888   
-34.951974   -5.025779   -1.628574   1.101677   0.177197   0.001534   32.215237   
-34.316748   -5.142348   -1.559536   1.182819   0.189658   0.029636   31.544032   
-33.497560   -5.239877   -1.394614   1.252508   0.221432   0.066958   30.738834   
-32.431432   -5.313887   -1.119286   1.300598   0.279605   0.172552   29.724155   
-31.353272   -5.574855   -1.084770   1.487894   0.429588   1.087565   28.525688   
-33.266044   -8.349886   -6.672550   1.624486   0.021315   4.164241   26.934282   
-65.567580   -28.100391   -28.100391   0.000000   0.000000   -12.322148   43.119557   
-50.575126   -14.211870   0.408376   0.000000   -0.000000   -2.395582   45.689915   
-48.661055   -13.522047   -2.068323   0.000000   -0.000000   -0.124485   42.289038   
-47.714712   -12.261179   -1.482651   0.000000   -0.000000   -0.387754   42.146470   
-46.889331   -11.367245   -1.738438   0.000000   -0.000000   -0.348690   41.467608   
-45.768744   -10.363548   -1.666255   0.000000   -0.000000   -0.339972   40.748751   
-44.793196   -9.485049   -1.625879   0.000000   -0.000000   -0.306454   40.129139   
-43.966146   -8.720681   -1.593277   0.000000   -0.000000   -0.273822   39.624236   
-43.267216   -8.061954   -1.574234   0.000000   -0.000000   -0.243434   39.209015   
-42.664607   -7.493984   -1.562696   0.000000   -0.000000   -0.216887   38.857056   
-42.132122   -7.004744   -1.555672   0.000000   0.000000   -0.194178   38.545457   
-41.648433   -6.583929   -1.550839   0.000000   -0.000000   -0.175015   38.255812   
-41.196966   -6.222903   -1.546654   0.000000   0.000000   -0.158923   37.973985   
-40.765246   -5.914442   -1.542070   0.000000   -0.000000   -0.145391   37.689622   
-40.344250   -5.652578   -1.536424   0.000000   -0.000000   -0.133919   37.395518   
-39.927770   -5.432453   -1.529323   0.000000   -0.000000   -0.124052   37.087004   
-39.511879   -5.250199   -1.520577   0.000000   0.000000   -0.115381   36.761411   
-39.094517   -5.102857   -1.510147   0.000000   -0.000000   -0.107548   36.417658   
-38.675222   -4.988306   -1.498126   0.000000   0.000000   -0.100237   36.055967   
-38.254969   -4.905236   -1.484729   0.000000   -0.000000   -0.093175   35.677703   
-37.836148   -4.853129   -1.470315   0.000000   -0.000000   -0.086133   35.285323   
-37.422612   -4.832275   -1.455429   0.000000   0.000000   -0.078948   34.882416   
-37.019780   -4.843783   -1.440878   0.000000   0.000000   -0.071561   34.473789   
-36.634683   -4.889585   -1.427838   0.000000   0.000000   -0.064096   34.065517   
-36.275792   -4.972374   -1.418018   0.000000   0.000000   -0.057017   33.664804   
-35.952267   -5.095377   -1.413882   0.000000   -0.000000   -0.051421   33.279370   
-35.671646   -5.261628   -1.418833   0.000000   0.000000   -0.049684   32.915612   
-35.430927   -5.470664   -1.435533   0.000000   0.000000   -0.057050   32.572532   
-35.179277   -5.703862   -1.454848   0.000000   0.000000   -0.086121   32.217711   
-34.681514   -5.867496   -1.404192   0.000000   -0.000000   -0.160687   31.702394   
-33.416395   -5.771324   -1.171209   0.000000   -0.000000   -0.294949   30.638475   
-30.462252   -5.120653   -0.718343   0.000000   0.000000   0.025732   28.186355   
-31.123583   -7.580358   -6.498735   0.000000   -0.000000   1.831003   24.848237   
-58.303791   -24.987339   -24.987339   2.063152   0.000000   -11.010124   38.554173   
-45.785292   -11.777561   -0.035506   2.533546   -0.008728   -2.238642   41.601595   
-45.642118   -11.176664   -2.323822   2.687396   0.052684   -0.212079   40.157889   
-45.898253   -10.240128   -1.950592   2.615643   0.064895   -0.375019   40.992532   
-45.979208   -9.666014   -2.253318   2.462175   0.051168   -0.309017   41.102411   
-45.581830   -8.990048   -2.233047   2.273971   0.029372   -0.288103   40.964647   
-45.133818   -8.397921   -2.211496   2.068160   0.003316   -0.256437   40.752230   
-44.675303   -7.876138   -2.178644   1.853496   -0.024355   -0.230752   40.512680   
-44.218425   -7.418172   -2.146411   1.636035   -0.052066   -0.208976   40.252872   
-43.761091   -7.014103   -2.114270   1.420488   -0.078651   -0.190645   39.974230   
-43.302329   -6.657232   -2.082851   1.210559   -0.103314   -0.174848   39.677555   
-42.841651   -6.342355   -2.052340   1.008953   -0.125540   -0.160994   39.363747   
-42.379036   -6.065330   -2.022861   0.817398   -0.145037   -0.148654   39.033751   
-41.914654   -5.822706   -1.994444   0.636748   -0.161671   -0.137531   38.688475   
-41.448712   -5.611542   -1.967068   0.467131   -0.175423   -0.127405   38.328738   
-40.981355   -5.429309   -1.940681   0.308120   -0.186343   -0.118106   37.955220   
-40.512595   -5.273833   -1.915211   0.158899   -0.194533   -0.109494   37.568426   
-40.042257   -5.143260   -1.890574   0.018404   -0.200116   -0.101446   37.168647   
-39.569921   -5.036034   -1.866672   -0.114544   -0.203237   -0.093842   36.755904   
-39.094857   -4.950882   -1.843382   -0.241136   -0.204055   -0.086561   36.329876   
-38.615935   -4.886799   -1.820544   -0.362477   -0.202758   -0.079460   35.889802   
-38.131528   -4.843050   -1.797931   -0.479503   -0.199581   -0.072354   35.434363   
-37.639413   -4.819203   -1.775210   -0.592899   -0.194850   -0.064980   34.961552   
-37.136729   -4.815212   -1.751879   -0.703021   -0.189037   -0.056925   34.468563   
-36.620082   -4.831619   -1.727193   -0.809817   -0.182869   -0.047531   33.951775   
-36.085996   -4.869964   -1.700067   -0.912741   -0.177477   -0.035740   33.406977   
-35.531574   -4.933357   -1.668758   -1.010648   -0.174637   -0.019982   32.829888   
-34.951974   -5.025779   -1.628574   -1.101677   -0.177197   0.001534   32.215237   
-34.316748   -5.142348   -1.559536   -1.182819   -0.189658   0.029636   31.544032   
-33.497560   -5.239877   -1.394614   -1.252508   -0.221432   0.066958   30.738834   
-32.431432   -5.313887   -1.119286   -1.300598   -0.279605   0.172552   29.724155   
-31.353272   -5.574855   -1.084770   -1.487894   -0.429588   1.087565   28.525688   
-33.266044   -8.349886   -6.672550   -1.624486   -0.021315   4.164241   26.934282   
-45.621793   -19.552197   -19.552197   9.691955   0.000000   -3.789619   31.693997   
-37.780176   -7.926914   1.026458   8.475374   -0.767536   0.220419   38.324213   
-42.368334   -8.664019   -2.276629   6.067101   -1.134349   1.377513   39.196309   
-44.618306   -8.378663   -2.413975   4.782729   -1.426734   0.884830   40.820307   
-45.642898   -8.113249   -2.689271   3.940481   -1.583924   0.698142   41.491180   
-45.911831   -7.723396   -2.639089   3.333781   -1.683181   0.539669   41.769411   
-45.918745   -7.378595   -2.578810   2.850070   -1.748065   0.425033   41.838403   
-45.750187   -7.064575   -2.508219   2.437287   -1.792064   0.329845   41.758879   
-45.457645   -6.776686   -2.438228   2.070460   -1.822176   0.249886   41.565577   
-45.075032   -6.510555   -2.369495   1.737734   -1.842587   0.181617   41.287423   
-44.629914   -6.264942   -2.303388   1.433128   -1.855828   0.122885   40.948060   
-44.143453   -6.039414   -2.240701   1.153205   -1.863474   0.071963   40.565917   
-43.631540   -5.833762   -2.181987   0.895531   -1.866524   0.027470   40.154830   
-43.105769   -5.647705   -2.127563   0.657985   -1.865632   -0.011740   39.724893   
-42.574382   -5.480827   -2.077576   0.438479   -1.861245   -0.046631   39.283287   
-42.043048   -5.332602   -2.032051   0.234854   -1.853673   -0.078029   38.834969   
-41.515494   -5.202446   -1.990929   0.044858   -1.843140   -0.106656   38.383228   
-40.994000   -5.089792   -1.954097   -0.133855   -1.829799   -0.133157   37.930115   
-40.479779   -4.994168   -1.921412   -0.303727   -1.813741   -0.158117   37.476757   
-39.973270   -4.915294   -1.892726   -0.467323   -1.794978   -0.182092   37.023587   
-39.474371   -4.853203   -1.867907   -0.627398   -1.773423   -0.205623   36.570515   
-38.982626   -4.808407   -1.846859   -0.787019   -1.748841   -0.229271   36.117048   
-38.497389   -4.782130   -1.829555   -0.949771   -1.720772   -0.253650   35.662378   
-38.017928   -4.776633   -1.816079   -1.120065   -1.688412   -0.279500   35.205412   
-37.543414   -4.795672   -1.806685   -1.303616   -1.650422   -0.307806   34.744703   
-37.072559   -4.845089   -1.801880   -1.508117   -1.604631   -0.340031   34.278128   
-36.602116   -4.933390   -1.802415   -1.744230   -1.547586   -0.378701   33.801808   
-36.119200   -5.070432   -1.807232   -2.026763   -1.473722   -0.428966   33.305491   
-35.563584   -5.254701   -1.801083   -2.376508   -1.374248   -0.503578   32.750137   
-34.673914   -5.412702   -1.692875   -2.811255   -1.229608   -0.628483   31.973701   
-32.792857   -5.331435   -1.304257   -3.363946   -1.035264   -0.826992   30.530374   
-28.949629   -4.774473   -0.563910   -3.463829   -0.646991   -0.660389   27.289862   
-28.955606   -6.937947   -6.027706   -3.069793   -1.907178   0.449295   23.354565   
-38.045288   -16.305123   -16.305123   -8.478682   0.000000   -0.161660   26.236945   
-32.415361   -7.000674   -0.193205   -6.926612   1.402282   2.142447   32.409649   
-34.646247   -6.548743   -1.097983   -4.669203   1.932517   2.308271   33.013242   
-34.762340   -5.708154   -0.913844   -3.573201   2.249351   1.930187   33.209610   
-35.273099   -5.370247   -1.067302   -2.916888   2.410850   1.476857   33.485919   
-35.579809   -5.098315   -1.088503   -2.453106   2.493417   1.144646   33.722482   
-35.694219   -4.864109   -1.079694   -2.092996   2.533860   0.882797   33.826212   
-35.649034   -4.647775   -1.053431   -1.789914   2.552165   0.668827   33.806836   
-35.487604   -4.446761   -1.022244   -1.521801   2.558214   0.489674   33.688756   
-35.241658   -4.259571   -0.989446   -1.278306   2.557049   0.338173   33.496092   
-34.935858   -4.086084   -0.956838   -1.054570   2.551246   0.209072   33.248693   
-34.588984   -3.926497   -0.925375   -0.848079   2.542123   0.098240   32.962116   
-34.215150   -3.781004   -0.895672   -0.657215   2.530350   0.002307   32.648143   
-33.824726   -3.649637   -0.868116   -0.480623   2.516263   -0.081506   32.315458   
-33.425147   -3.532255   -0.842935   -0.316949   2.500030   -0.155521   31.970302   
-33.021592   -3.428574   -0.820246   -0.164746   2.481737   -0.221699   31.617044   
-32.617525   -3.338232   -0.800083   -0.022463   2.461428   -0.281726   31.258632   
-32.215123   -3.260854   -0.782422   0.111555   2.439118   -0.337080   30.896948   
-31.815589   -3.196116   -0.767203   0.239056   2.414791   -0.389088   30.533062   
-31.419388   -3.143813   -0.754341   0.361894   2.388385   -0.438976   30.167412   
-31.026405   -3.103943   -0.743736   0.482068   2.359762   -0.487926   29.799925   
-30.636045   -3.076796   -0.735279   0.601797   2.328669   -0.537134   29.430079   
-30.247251   -3.063083   -0.728840   0.723641   2.294668   -0.587898   29.056912   
-29.858399   -3.064071   -0.724242   0.850698   2.257049   -0.641770   28.678951   
-29.466916   -3.081724   -0.721156   0.986867   2.214697   -0.700826   28.293985   
-29.068239   -3.118723   -0.718781   1.137233   2.165885   -0.768243   27.898527   
-28.653251   -3.178040   -0.714836   1.308542   2.107977   -0.849655   27.486689   
-28.202882   -3.261336   -0.702389   1.509622   2.036864   -0.956694   27.048772   
-27.684408   -3.367480   -0.664122   1.749932   1.946310   -1.114476   26.573536   
-27.074233   -3.499492   -0.571761   2.037694   1.826260   -1.365446   26.065738   
-26.415620   -3.712117   -0.482142   2.357523   1.683271   -1.686795   25.478132   
-24.643444   -3.753144   -0.595459   2.786260   1.514978   -1.761421   23.712417   
-26.139086   -6.960023   -7.223607   3.012783   2.301318   -0.517704   20.232561   
-40.200804   -17.228916   -17.228916   -1.630939   0.000000   -6.768069   25.944321   
-35.416495   -9.082417   -0.599002   -1.855844   0.095272   -2.079910   32.207759   
-38.078888   -9.129907   -1.603614   -2.002554   0.044437   -1.216322   33.875150   
-37.136785   -7.964529   -1.108294   -1.937817   0.025394   -0.835430   33.744833   
-36.697335   -7.300118   -1.186292   -1.820146   0.014193   -0.758937   33.515455   
-36.289497   -6.738560   -1.185173   -1.681790   0.006950   -0.682464   33.331430   
-35.902918   -6.263979   -1.178775   -1.533321   0.003187   -0.614509   33.139865   
-35.519433   -5.849686   -1.162088   -1.379239   0.003289   -0.555944   32.936952   
-35.141811   -5.487303   -1.143975   -1.222593   0.007062   -0.507355   32.721695   
-34.768073   -5.168969   -1.125751   -1.066169   0.013807   -0.466553   32.493730   
-34.396356   -4.888924   -1.108076   -0.912504   0.022606   -0.431598   32.252619   
-34.025263   -4.642689   -1.091087   -0.763678   0.032534   -0.401036   31.998309   
-33.654033   -4.426738   -1.074816   -0.621188   0.042785   -0.373861   31.731069   
-33.282321   -4.238196   -1.059240   -0.485919   0.052717   -0.349380   31.451360   
-32.909996   -4.074663   -1.044319   -0.358215   0.061854   -0.327096   31.159700   
-32.537001   -3.934100   -1.030000   -0.237975   0.069871   -0.306636   30.856575   
-32.163253   -3.814775   -1.016232   -0.124770   0.076573   -0.287701   30.542376   
-31.788572   -3.715225   -1.002957   -0.017954   0.081863   -0.270032   30.217344   
-31.412634   -3.634234   -0.990113   0.083237   0.085731   -0.253390   29.881527   
-31.034922   -3.570827   -0.977630   0.179604   0.088238   -0.237530   29.534723   
-30.654689   -3.524265   -0.965420   0.271910   0.089505   -0.222170   29.176422   
-30.270942   -3.494074   -0.953368   0.360822   0.089721   -0.206938   28.805751   
-29.882470   -3.480095   -0.941312   0.446864   0.089144   -0.191281   28.421439   
-29.487983   -3.482605   -0.929012   0.530381   0.088118   -0.174311   28.021843   
-29.086445   -3.502534   -0.916095   0.611519   0.087099   -0.154548   27.605118   
-28.677715   -3.541831   -0.901891   0.690233   0.086703   -0.129562   27.169664   
-28.263683   -3.603968   -0.884907   0.766307   0.087790   -0.095625   26.715229   
-27.851258   -3.694937   -0.861452   0.839411   0.091655   -0.047766   26.246162   
-27.466310   -3.828075   -0.825468   0.909614   0.100400   0.020982   25.782654   
-27.202990   -4.044823   -0.787212   0.977707   0.118344   0.137645   25.386383   
-27.224828   -4.444071   -0.867205   1.055692   0.147867   0.456973   25.100897   
-26.156113   -4.662810   -1.198661   1.110826   0.197308   1.468046   23.801928   
-27.704369   -7.591260   -7.534382   1.115895   -0.097346   4.253368   21.723721   
-45.362820   -19.441209   -19.441209   0.000000   0.000000   -7.437354   28.946030   
-39.186217   -11.205652   -0.374520   0.000000   -0.000000   -2.168638   35.313368   
-40.569270   -11.177266   -1.272154   0.000000   -0.000000   -1.319641   35.726957   