<VTKFile type="UnstructuredGrid"  version="0.1"   > 
<UnstructuredGrid> 
<Piece  NumberOfPoints="  63" NumberOfCells=" 40"> 
<Points> 
<DataArray  type="Float64"  NumberOfComponents="3"  format="ascii" > 
100.000000 0.000000 10.000000 
111.000000 0.000000 10.000000 
122.000000 0.000000 10.000000 
133.000000 0.000000 10.000000 
144.000000 0.000000 10.000000 
155.000000 0.000000 10.000000 
166.000000 0.000000 10.000000 
177.000000 0.000000 10.000000 
188.000000 0.000000 10.000000 
199.000000 0.000000 10.000000 
210.000000 0.000000 10.000000 
221.000000 0.000000 10.000000 
232.000000 0.000000 10.000000 
243.000000 0.000000 10.000000 
254.000000 0.000000 10.000000 
265.000000 0.000000 10.000000 
276.000000 0.000000 10.000000 
287.000000 0.000000 10.000000 
298.000000 0.000000 10.000000 
309.000000 0.000000 10.000000 
320.000000 0.000000 10.000000 
100.000000 40.000000 10.000000 
111.000000 40.000000 10.000000 
122.000000 40.000000 10.000000 
133.000000 40.000000 10.000000 
144.000000 40.000000 10.000000 
155.000000 40.000000 10.000000 
166.000000 40.000000 10.000000 
177.000000 40.000000 10.000000 
188.000000 40.000000 10.000000 
199.000000 40.000000 10.000000 
210.000000 40.000000 10.000000 
221.000000 40.000000 10.000000 
232.000000 40.000000 10.000000 
243.000000 40.000000 10.000000 
254.000000 40.000000 10.000000 
265.000000 40.000000 10.000000 
276.000000 40.000000 10.000000 
287.000000 40.000000 10.000000 
298.000000 40.000000 10.000000 
309.000000 40.000000 10.000000 
320.000000 40.000000 10.000000 
100.000000 80.000000 10.000000 
111.000000 80.000000 10.000000 
122.000000 80.000000 10.000000 
133.000000 80.000000 10.000000 
144.000000 80.000000 10.000000 
155.000000 80.000000 10.000000 
166.000000 80.000000 10.000000 
177.000000 80.000000 10.000000 
188.000000 80.000000 10.000000 
199.000000 80.000000 10.000000 
210.000000 80.000000 10.000000 
221.000000 80.000000 10.000000 
232.000000 80.000000 10.000000 
243.000000 80.000000 10.000000 
254.000000 80.000000 10.000000 
265.000000 80.000000 10.000000 
276.000000 80.000000 10.000000 
287.000000 80.000000 10.000000 
298.000000 80.000000 10.000000 
309.000000 80.000000 10.000000 
320.000000 80.000000 10.000000 
</DataArray> 
</Points> 
<Cells> 
<DataArray  type="Int32"  Name="connectivity"  format="ascii"> 
0 1 22 21 
1 2 23 22 
2 3 24 23 
3 4 25 24 
4 5 26 25 
5 6 27 26 
6 7 28 27 
7 8 29 28 
8 9 30 29 
9 10 31 30 
10 11 32 31 
11 12 33 32 
12 13 34 33 
13 14 35 34 
14 15 36 35 
15 16 37 36 
16 17 38 37 
17 18 39 38 
18 19 40 39 
19 20 41 40 
21 22 43 42 
22 23 44 43 
23 24 45 44 
24 25 46 45 
25 26 47 46 
26 27 48 47 
27 28 49 48 
28 29 50 49 
29 30 51 50 
30 31 52 51 
31 32 53 52 
32 33 54 53 
33 34 55 54 
34 35 56 55 
35 36 57 56 
36 37 58 57 
37 38 59 58 
38 39 60 59 
39 40 61 60 
40 41 62 61 
</DataArray> 
<DataArray  type="Int32"  Name="offsets"  format="ascii"> 
4 
8 
12 
16 
20 
24 
28 
32 
36 
40 
44 
48 
52 
56 
60 
64 
68 
72 
76 
80 
84 
88 
92 
96 
100 
104 
108 
112 
116 
120 
124 
128 
132 
136 
140 
144 
148 
152 
156 
160 
</DataArray> 
<DataArray  type="UInt8"  Name="types"  format="ascii"> 
9 
9 
9 
9 
9 
9 
9 
9 
9 
9 
9 
9 
9 
9 
9 
9 
9 
9 
9 
9 
9 
9 
9 
9 
9 
9 
9 
9 
9 
9 
9 
9 
9 
9 
9 
9 
9 
9 
9 
9 
</DataArray> 
</Cells> 
<PointData  Vectors="sigma"> 
<DataArray  type="Float64"  Name="sigma" NumberOfComponents="3" format="ascii"> 
0.000000   0.000000   0.000000   
0.000000   0.000000   0.000000   
0.000000   0.000000   0.000000   
0.000000   0.000000   0.000000   
0.000000   0.000000   0.000000   
0.000000   0.000000   0.000000   
0.000000   0.000000   0.000000   
0.000000   0.000000   0.000000   
0.000000   0.000000   0.000000   
0.000000   0.000000   0.000000   
0.000000   0.000000   0.000000   
0.000000   0.000000   0.000000   
0.000000   0.000000   0.000000   
0.000000   0.000000   0.000000   
0.000000   0.000000   0.000000   
0.000000   0.000000   0.000000   
0.000000   0.000000   0.000000   
0.000000   0.000000   0.000000   
0.000000   0.000000   0.000000   
0.000000   0.000000   0.000000   
0.000000   0.000000   0.000000   
0.000000   0.000000   0.000000   
0.000000   0.000000   0.000000   
0.000000   0.000000   0.000000   
0.000000   0.000000   0.000000   
0.000000   0.000000   0.000000   
0.000000   0.000000   0.000000   
0.000000   0.000000   0.000000   
0.000000   0.000000   0.000000   
0.000000   0.000000   0.000000   
0.000000   0.000000   0.000000   
0.000000   0.000000   0.000000   
0.000000   0.000000   0.000000   
0.000000   0.000000   0.000000   
0.000000   0.000000   0.000000   
0.000000   0.000000   0.000000   
0.000000   0.000000   0.000000   
0.000000   0.000000   0.000000   
0.000000   0.000000   0.000000   
0.000000   0.000000   0.000000   
0.000000   0.000000   0.000000   
0.000000   0.000000   0.000000   
0.000000   0.000000   0.000000   
0.000000   0.000000   0.000000   
0.000000   0.000000   0.000000   
0.000000   0.000000   0.000000   
0.000000   0.000000   0.000000   
0.000000   0.000000   0.000000   
0.000000   0.000000   0.000000   
0.000000   0.000000   0.000000   
0.000000   0.000000   0.000000   
0.000000   0.000000   0.000000   
0.000000   0.000000   0.000000   
0.000000   0.000000   0.000000   
0.000000   0.000000   0.000000   
0.000000   0.000000   0.000000   
0.000000   0.000000   0.000000   
0.000000   0.000000   0.000000   
0.000000   0.000000   0.000000   
0.000000   0.000000   0.000000   
0.000000   0.000000   0.000000   
0.000000   0.000000   0.000000   
0.000000   0.000000   0.000000   
</DataArray> 
<DataArray  type="Float64"  Name="U" NumberOfComponents="3" format="ascii"> 
  0.00000000     0.00000000   -19.88692472   
  0.00000000     0.00000000   -24.26796500   
  0.00000000     0.00000000   -28.97247705   
  0.00000000     0.00000000   -33.98442722   
  0.00000000     0.00000000   -39.28837395   
  0.00000000     0.00000000   -44.86838000   
  0.00000000     0.00000000   -50.70792136   
  0.00000000     0.00000000   -56.79007926   
  0.00000000     0.00000000   -63.09771137   
  0.00000000     0.00000000   -69.61355997   
  0.00000000     0.00000000   -76.32031112   
  0.00000000     0.00000000   -83.20062403   
  0.00000000     0.00000000   -90.23714378   
  0.00000000     0.00000000   -97.41250406   
  0.00000000     0.00000000   -104.70932228   
  0.00000000     0.00000000   -112.11018541   
  0.00000000     0.00000000   -119.59762272   
  0.00000000     0.00000000   -127.15406227   
  0.00000000     0.00000000   -134.76178304   
  0.00000000     0.00000000   -142.40294129   
  0.00000000     0.00000000   -150.06003538   
  0.00000000     0.00000000   -20.30026894   
  0.00000000     0.00000000   -24.62396251   
  0.00000000     0.00000000   -29.28627436   
  0.00000000     0.00000000   -34.26793608   
  0.00000000     0.00000000   -39.54873945   
  0.00000000     0.00000000   -45.10941093   
  0.00000000     0.00000000   -50.93150408   
  0.00000000     0.00000000   -56.99709780   
  0.00000000     0.00000000   -63.28856121   
  0.00000000     0.00000000   -69.78841103   
  0.00000000     0.00000000   -76.47923504   
  0.00000000     0.00000000   -83.34365463   
  0.00000000     0.00000000   -90.36430879   
  0.00000000     0.00000000   -97.52385061   
  0.00000000     0.00000000   -104.80495372   
  0.00000000     0.00000000   -112.19033064   
  0.00000000     0.00000000   -119.66276886   
  0.00000000     0.00000000   -127.20519058   
  0.00000000     0.00000000   -134.80072844   
  0.00000000     0.00000000   -142.43274768   
  0.00000000     0.00000000   -150.08453548   
  0.00000000     0.00000000   -19.88692472   
  0.00000000     0.00000000   -24.26796500   
  0.00000000     0.00000000   -28.97247705   
  0.00000000     0.00000000   -33.98442722   
  0.00000000     0.00000000   -39.28837395   
  0.00000000     0.00000000   -44.86838000   
  0.00000000     0.00000000   -50.70792136   
  0.00000000     0.00000000   -56.79007926   
  0.00000000     0.00000000   -63.09771137   
  0.00000000     0.00000000   -69.61355997   
  0.00000000     0.00000000   -76.32031112   
  0.00000000     0.00000000   -83.20062403   
  0.00000000     0.00000000   -90.23714378   
  0.00000000     0.00000000   -97.41250406   
  0.00000000     0.00000000   -104.70932228   
  0.00000000     0.00000000   -112.11018541   
  0.00000000     0.00000000   -119.59762272   
  0.00000000     0.00000000   -127.15406227   
  0.00000000     0.00000000   -134.76178304   
  0.00000000     0.00000000   -142.40294129   
  0.00000000     0.00000000   -150.06003538   
</DataArray> 
</PointData> 
</Piece> 
</UnstructuredGrid> 
</VTKFile> 
