<VTKFile type="UnstructuredGrid"  version="0.1"   > 
<UnstructuredGrid> 
<Piece  NumberOfPoints="  990" NumberOfCells=" 640"> 
<Points> 
<DataArray  type="Float64"  NumberOfComponents="3"  format="ascii" > 
0.000000 0.000000 0.000000 
5.468750 0.000000 0.000000 
10.937500 0.000000 0.000000 
16.406250 0.000000 0.000000 
21.875000 0.000000 0.000000 
27.343750 0.000000 0.000000 
32.812500 0.000000 0.000000 
38.281250 0.000000 0.000000 
43.750000 0.000000 0.000000 
49.218750 0.000000 0.000000 
54.687500 0.000000 0.000000 
60.156250 0.000000 0.000000 
65.625000 0.000000 0.000000 
71.093750 0.000000 0.000000 
76.562500 0.000000 0.000000 
82.031250 0.000000 0.000000 
87.500000 0.000000 0.000000 
92.968750 0.000000 0.000000 
98.437500 0.000000 0.000000 
103.906250 0.000000 0.000000 
109.375000 0.000000 0.000000 
114.843750 0.000000 0.000000 
120.312500 0.000000 0.000000 
125.781250 0.000000 0.000000 
131.250000 0.000000 0.000000 
136.718750 0.000000 0.000000 
142.187500 0.000000 0.000000 
147.656250 0.000000 0.000000 
153.125000 0.000000 0.000000 
158.593750 0.000000 0.000000 
164.062500 0.000000 0.000000 
169.531250 0.000000 0.000000 
175.000000 0.000000 0.000000 
0.000000 20.000000 0.000000 
5.468750 20.000000 0.000000 
10.937500 20.000000 0.000000 
16.406250 20.000000 0.000000 
21.875000 20.000000 0.000000 
27.343750 20.000000 0.000000 
32.812500 20.000000 0.000000 
38.281250 20.000000 0.000000 
43.750000 20.000000 0.000000 
49.218750 20.000000 0.000000 
54.687500 20.000000 0.000000 
60.156250 20.000000 0.000000 
65.625000 20.000000 0.000000 
71.093750 20.000000 0.000000 
76.562500 20.000000 0.000000 
82.031250 20.000000 0.000000 
87.500000 20.000000 0.000000 
92.968750 20.000000 0.000000 
98.437500 20.000000 0.000000 
103.906250 20.000000 0.000000 
109.375000 20.000000 0.000000 
114.843750 20.000000 0.000000 
120.312500 20.000000 0.000000 
125.781250 20.000000 0.000000 
131.250000 20.000000 0.000000 
136.718750 20.000000 0.000000 
142.187500 20.000000 0.000000 
147.656250 20.000000 0.000000 
153.125000 20.000000 0.000000 
158.593750 20.000000 0.000000 
164.062500 20.000000 0.000000 
169.531250 20.000000 0.000000 
175.000000 20.000000 0.000000 
0.000000 40.000000 0.000000 
5.468750 40.000000 0.000000 
10.937500 40.000000 0.000000 
16.406250 40.000000 0.000000 
21.875000 40.000000 0.000000 
27.343750 40.000000 0.000000 
32.812500 40.000000 0.000000 
38.281250 40.000000 0.000000 
43.750000 40.000000 0.000000 
49.218750 40.000000 0.000000 
54.687500 40.000000 0.000000 
60.156250 40.000000 0.000000 
65.625000 40.000000 0.000000 
71.093750 40.000000 0.000000 
76.562500 40.000000 0.000000 
82.031250 40.000000 0.000000 
87.500000 40.000000 0.000000 
92.968750 40.000000 0.000000 
98.437500 40.000000 0.000000 
103.906250 40.000000 0.000000 
109.375000 40.000000 0.000000 
114.843750 40.000000 0.000000 
120.312500 40.000000 0.000000 
125.781250 40.000000 0.000000 
131.250000 40.000000 0.000000 
136.718750 40.000000 0.000000 
142.187500 40.000000 0.000000 
147.656250 40.000000 0.000000 
153.125000 40.000000 0.000000 
158.593750 40.000000 0.000000 
164.062500 40.000000 0.000000 
169.531250 40.000000 0.000000 
175.000000 40.000000 0.000000 
0.000000 60.000000 0.000000 
5.468750 60.000000 0.000000 
10.937500 60.000000 0.000000 
16.406250 60.000000 0.000000 
21.875000 60.000000 0.000000 
27.343750 60.000000 0.000000 
32.812500 60.000000 0.000000 
38.281250 60.000000 0.000000 
43.750000 60.000000 0.000000 
49.218750 60.000000 0.000000 
54.687500 60.000000 0.000000 
60.156250 60.000000 0.000000 
65.625000 60.000000 0.000000 
71.093750 60.000000 0.000000 
76.562500 60.000000 0.000000 
82.031250 60.000000 0.000000 
87.500000 60.000000 0.000000 
92.968750 60.000000 0.000000 
98.437500 60.000000 0.000000 
103.906250 60.000000 0.000000 
109.375000 60.000000 0.000000 
114.843750 60.000000 0.000000 
120.312500 60.000000 0.000000 
125.781250 60.000000 0.000000 
131.250000 60.000000 0.000000 
136.718750 60.000000 0.000000 
142.187500 60.000000 0.000000 
147.656250 60.000000 0.000000 
153.125000 60.000000 0.000000 
158.593750 60.000000 0.000000 
164.062500 60.000000 0.000000 
169.531250 60.000000 0.000000 
175.000000 60.000000 0.000000 
0.000000 80.000000 0.000000 
5.468750 80.000000 0.000000 
10.937500 80.000000 0.000000 
16.406250 80.000000 0.000000 
21.875000 80.000000 0.000000 
27.343750 80.000000 0.000000 
32.812500 80.000000 0.000000 
38.281250 80.000000 0.000000 
43.750000 80.000000 0.000000 
49.218750 80.000000 0.000000 
54.687500 80.000000 0.000000 
60.156250 80.000000 0.000000 
65.625000 80.000000 0.000000 
71.093750 80.000000 0.000000 
76.562500 80.000000 0.000000 
82.031250 80.000000 0.000000 
87.500000 80.000000 0.000000 
92.968750 80.000000 0.000000 
98.437500 80.000000 0.000000 
103.906250 80.000000 0.000000 
109.375000 80.000000 0.000000 
114.843750 80.000000 0.000000 
120.312500 80.000000 0.000000 
125.781250 80.000000 0.000000 
131.250000 80.000000 0.000000 
136.718750 80.000000 0.000000 
142.187500 80.000000 0.000000 
147.656250 80.000000 0.000000 
153.125000 80.000000 0.000000 
158.593750 80.000000 0.000000 
164.062500 80.000000 0.000000 
169.531250 80.000000 0.000000 
175.000000 80.000000 0.000000 
0.000000 0.000000 2.000000 
5.468750 0.000000 2.000000 
10.937500 0.000000 2.000000 
16.406250 0.000000 2.000000 
21.875000 0.000000 2.000000 
27.343750 0.000000 2.000000 
32.812500 0.000000 2.000000 
38.281250 0.000000 2.000000 
43.750000 0.000000 2.000000 
49.218750 0.000000 2.000000 
54.687500 0.000000 2.000000 
60.156250 0.000000 2.000000 
65.625000 0.000000 2.000000 
71.093750 0.000000 2.000000 
76.562500 0.000000 2.000000 
82.031250 0.000000 2.000000 
87.500000 0.000000 2.000000 
92.968750 0.000000 2.000000 
98.437500 0.000000 2.000000 
103.906250 0.000000 2.000000 
109.375000 0.000000 2.000000 
114.843750 0.000000 2.000000 
120.312500 0.000000 2.000000 
125.781250 0.000000 2.000000 
131.250000 0.000000 2.000000 
136.718750 0.000000 2.000000 
142.187500 0.000000 2.000000 
147.656250 0.000000 2.000000 
153.125000 0.000000 2.000000 
158.593750 0.000000 2.000000 
164.062500 0.000000 2.000000 
169.531250 0.000000 2.000000 
175.000000 0.000000 2.000000 
0.000000 20.000000 2.000000 
5.468750 20.000000 2.000000 
10.937500 20.000000 2.000000 
16.406250 20.000000 2.000000 
21.875000 20.000000 2.000000 
27.343750 20.000000 2.000000 
32.812500 20.000000 2.000000 
38.281250 20.000000 2.000000 
43.750000 20.000000 2.000000 
49.218750 20.000000 2.000000 
54.687500 20.000000 2.000000 
60.156250 20.000000 2.000000 
65.625000 20.000000 2.000000 
71.093750 20.000000 2.000000 
76.562500 20.000000 2.000000 
82.031250 20.000000 2.000000 
87.500000 20.000000 2.000000 
92.968750 20.000000 2.000000 
98.437500 20.000000 2.000000 
103.906250 20.000000 2.000000 
109.375000 20.000000 2.000000 
114.843750 20.000000 2.000000 
120.312500 20.000000 2.000000 
125.781250 20.000000 2.000000 
131.250000 20.000000 2.000000 
136.718750 20.000000 2.000000 
142.187500 20.000000 2.000000 
147.656250 20.000000 2.000000 
153.125000 20.000000 2.000000 
158.593750 20.000000 2.000000 
164.062500 20.000000 2.000000 
169.531250 20.000000 2.000000 
175.000000 20.000000 2.000000 
0.000000 40.000000 2.000000 
5.468750 40.000000 2.000000 
10.937500 40.000000 2.000000 
16.406250 40.000000 2.000000 
21.875000 40.000000 2.000000 
27.343750 40.000000 2.000000 
32.812500 40.000000 2.000000 
38.281250 40.000000 2.000000 
43.750000 40.000000 2.000000 
49.218750 40.000000 2.000000 
54.687500 40.000000 2.000000 
60.156250 40.000000 2.000000 
65.625000 40.000000 2.000000 
71.093750 40.000000 2.000000 
76.562500 40.000000 2.000000 
82.031250 40.000000 2.000000 
87.500000 40.000000 2.000000 
92.968750 40.000000 2.000000 
98.437500 40.000000 2.000000 
103.906250 40.000000 2.000000 
109.375000 40.000000 2.000000 
114.843750 40.000000 2.000000 
120.312500 40.000000 2.000000 
125.781250 40.000000 2.000000 
131.250000 40.000000 2.000000 
136.718750 40.000000 2.000000 
142.187500 40.000000 2.000000 
147.656250 40.000000 2.000000 
153.125000 40.000000 2.000000 
158.593750 40.000000 2.000000 
164.062500 40.000000 2.000000 
169.531250 40.000000 2.000000 
175.000000 40.000000 2.000000 
0.000000 60.000000 2.000000 
5.468750 60.000000 2.000000 
10.937500 60.000000 2.000000 
16.406250 60.000000 2.000000 
21.875000 60.000000 2.000000 
27.343750 60.000000 2.000000 
32.812500 60.000000 2.000000 
38.281250 60.000000 2.000000 
43.750000 60.000000 2.000000 
49.218750 60.000000 2.000000 
54.687500 60.000000 2.000000 
60.156250 60.000000 2.000000 
65.625000 60.000000 2.000000 
71.093750 60.000000 2.000000 
76.562500 60.000000 2.000000 
82.031250 60.000000 2.000000 
87.500000 60.000000 2.000000 
92.968750 60.000000 2.000000 
98.437500 60.000000 2.000000 
103.906250 60.000000 2.000000 
109.375000 60.000000 2.000000 
114.843750 60.000000 2.000000 
120.312500 60.000000 2.000000 
125.781250 60.000000 2.000000 
131.250000 60.000000 2.000000 
136.718750 60.000000 2.000000 
142.187500 60.000000 2.000000 
147.656250 60.000000 2.000000 
153.125000 60.000000 2.000000 
158.593750 60.000000 2.000000 
164.062500 60.000000 2.000000 
169.531250 60.000000 2.000000 
175.000000 60.000000 2.000000 
0.000000 80.000000 2.000000 
5.468750 80.000000 2.000000 
10.937500 80.000000 2.000000 
16.406250 80.000000 2.000000 
21.875000 80.000000 2.000000 
27.343750 80.000000 2.000000 
32.812500 80.000000 2.000000 
38.281250 80.000000 2.000000 
43.750000 80.000000 2.000000 
49.218750 80.000000 2.000000 
54.687500 80.000000 2.000000 
60.156250 80.000000 2.000000 
65.625000 80.000000 2.000000 
71.093750 80.000000 2.000000 
76.562500 80.000000 2.000000 
82.031250 80.000000 2.000000 
87.500000 80.000000 2.000000 
92.968750 80.000000 2.000000 
98.437500 80.000000 2.000000 
103.906250 80.000000 2.000000 
109.375000 80.000000 2.000000 
114.843750 80.000000 2.000000 
120.312500 80.000000 2.000000 
125.781250 80.000000 2.000000 
131.250000 80.000000 2.000000 
136.718750 80.000000 2.000000 
142.187500 80.000000 2.000000 
[...]
<PointData  Vectors="sigma"> 
<DataArray  type="Float64"  Name="sigma" NumberOfComponents="7" format="ascii"> 
-50.552171   -21.665216   -21.665216   -17.308374   0.000000   -5.907629   42.870688   
-41.163468   -0.530376   -0.517452   -5.708950   0.151881   0.228984   41.827937   
-42.074861   1.494591   0.709299   -2.517693   0.159349   0.265395   43.405102   
-43.055128   1.111358   -0.370195   -1.382281   0.105603   -0.198826   43.512328   
-43.210337   1.124032   0.291493   -0.947040   0.061285   0.116360   43.955225   
-43.263597   0.727258   -0.058914   -0.691096   0.025666   -0.063456   43.619674   
-42.794034   0.614728   0.117823   -0.506514   0.013466   0.031356   43.171410   
-42.225828   0.442535   0.019596   -0.356063   0.002381   -0.015999   42.462961   
-41.489332   0.364229   0.057301   -0.230695   0.001606   0.007072   41.702860   
-40.720528   0.282806   0.028379   -0.126258   -0.001004   -0.003433   40.877300   
-39.906209   0.231764   0.032510   -0.039372   -0.000104   0.001386   40.038776   
-39.084044   0.186245   0.022429   0.032450   -0.000583   -0.000531   39.188679   
-38.251919   0.152484   0.020168   0.091668   0.000003   0.000338   38.338745   
-37.419445   0.124157   0.015630   0.140353   -0.000067   0.000096   37.490244   
-36.586371   0.101744   0.013071   0.180332   0.000167   0.000244   36.645190   
-35.754811   0.083409   0.010558   0.213165   0.000142   0.000252   35.803754   
-34.924621   0.068679   0.008693   0.240170   0.000208   0.000295   34.965820   
-34.096045   0.056835   0.007172   0.262458   0.000172   0.000311   34.131103   
-33.268868   0.047407   0.005952   0.280962   0.000190   0.000349   33.299122   
-32.442942   0.040025   0.005019   0.296460   0.000132   0.000348   32.469538   
-31.617917   0.034404   0.004319   0.309606   0.000182   0.000368   31.641834   
-30.793726   0.030270   0.003620   0.320966   0.000084   0.000451   30.815695   
-29.969353   0.027853   0.003681   0.330978   0.000287   0.000160   29.990607   
-29.145545   0.026328   0.002147   0.340138   0.000146   0.001103   29.165741   
-28.318335   0.028178   0.004837   0.348624   0.000818   -0.001357   28.341283   
-27.492101   0.028933   -0.002076   0.357155   0.000843   0.004637   27.512500   
-26.651788   0.040823   0.011710   0.365586   0.002806   -0.008904   26.685585   
-25.816629   0.041608   -0.018569   0.376028   0.004066   0.020132   25.836436   
-24.938918   0.079938   0.038945   0.392193   0.008781   -0.038889   25.007708   
-24.102702   0.051286   -0.072213   0.431114   0.012827   0.071108   24.104370   
-23.194204   0.086223   0.107397   0.568562   0.017617   -0.106887   23.312586   
-21.945080   -0.088240   -0.099507   0.953489   0.023239   -0.041648   21.913684   
-22.650232   -3.338758   -2.906397   2.963458   -0.138352   2.175501   20.544381   
-57.733228   -20.496225   -15.182004   -3.533703   0.028984   -7.564587   44.831332   
-51.685912   -15.043493   -7.425778   -3.538444   0.043108   -3.634078   43.595335   
-45.784753   -8.618983   0.250313   -3.463806   0.049248   0.184643   42.755787   
-45.538943   -6.873128   0.026106   -3.215383   0.027516   0.006354   42.920297   
-44.694186   -5.451107   -0.015939   -2.838035   0.004398   -0.012806   42.517832   
-43.847173   -4.359759   0.030309   -2.410798   -0.009311   0.008592   42.070691   
-43.034406   -3.537512   0.002400   -1.980457   -0.014914   -0.004420   41.527428   
-42.216636   -2.870479   0.015473   -1.575110   -0.015885   0.002280   40.960568   
-41.408117   -2.340801   0.006695   -1.209372   -0.014612   -0.001058   40.349670   
-40.593561   -1.906733   0.008820   -0.889136   -0.012531   0.000526   39.711314   
-39.779660   -1.555305   0.005767   -0.614658   -0.010372   -0.000217   39.044363   
-38.962924   -1.267884   0.005442   -0.382911   -0.008421   0.000109   38.354394   
-38.145715   -1.034267   0.004121   -0.189295   -0.006785   -0.000037   37.643590   
-37.327434   -0.844049   0.003502   -0.028668   -0.005451   0.000020   36.915043   
-36.508776   -0.689784   0.002795   0.104018   -0.004387   -0.000006   36.171095   
-35.689692   -0.564922   0.002308   0.213408   -0.003544   0.000002   35.414002   
-34.870370   -0.464319   0.001884   0.303610   -0.002881   -0.000002   34.645700   
-34.050830   -0.383709   0.001557   0.378169   -0.002360   -0.000002   33.867884   
-33.231129   -0.319681   0.001293   0.440107   -0.001955   -0.000002   33.082002   
-32.411273   -0.269490   0.001093   0.491972   -0.001640   -0.000006   32.289262   
-31.591292   -0.230997   0.000919   0.535903   -0.001399   0.000004   31.490651   
-30.771129   -0.202515   0.000838   0.573687   -0.001211   -0.000027   30.686952   
-29.950865   -0.182933   0.000654   0.606801   -0.001058   0.000050   29.878698   
-29.130242   -0.171288   0.000793   0.636447   -0.000898   -0.000133   29.066344   
-28.309650   -0.167711   0.000286   0.663554   -0.000690   0.000271   28.249756   
-27.488278   -0.171667   0.001122   0.688791   -0.000303   -0.000585   27.429430   
-26.667676   -0.186094   -0.000790   0.712505   0.000383   0.001125   26.603424   
-25.845781   -0.210861   0.002484   0.734674   0.001733   -0.002158   25.773794   
-25.024363   -0.256694   -0.002737   0.754220   0.003886   0.002872   24.930050   
-24.183013   -0.324172   0.002296   0.767332   0.007092   -0.001973   24.060970   
-23.118825   -0.371245   0.023636   0.760382   0.009841   -0.042540   22.985887   
-22.270024   -0.742170   -0.697200   0.713100   -0.002640   0.590503   21.710022   
-22.052900   -1.101546   -1.422265   0.677011   -0.015882   1.247682   21.069404   
-62.317685   -22.820717   -16.447707   0.000000   0.000000   -8.362694   47.874536   
-55.373898   -17.544421   -8.056616   0.000000   0.000000   -4.024210   45.861338   
-48.054223   -11.611118   0.258562   0.000000   0.000000   0.197617   43.620665   
-46.865644   -10.166095   0.032939   0.000000   0.000000   0.007915   42.737036   
-45.308141   -8.559819   -0.005878   0.000000   0.000000   -0.014196   41.697370   
-43.997202   -7.090137   0.045786   0.000000   0.000000   0.009176   40.952364   
-42.916811   -5.852670   0.015316   0.000000   0.000000   -0.004820   40.324817   
-41.961871   -4.794071   0.027819   0.000000   0.000000   0.002334   39.802469   
-41.100863   -3.921980   0.016918   0.000000   0.000000   -0.001141   39.299302   
-40.281998   -3.198202   0.017520   0.000000   0.000000   0.000510   38.793602   
-39.489619   -2.606812   0.012907   0.000000   -0.000000   -0.000231   38.261210   
-38.705492   -2.122781   0.011304   0.000000   -0.000000   0.000093   37.695908   
-37.923886   -1.729216   0.008905   0.000000   0.000000   -0.000045   37.094825   
-37.139739   -1.409428   0.007396   0.000000   0.000000   0.000007   36.459733   
-36.351733   -1.150527   0.005973   0.000000   0.000000   -0.000017   35.793706   
-35.559098   -0.941415   0.004901   0.000000   0.000000   -0.000012   35.100562   
-34.762017   -0.773217   0.004011   0.000000   0.000000   -0.000017   34.384102   
-33.960845   -0.638658   0.003310   0.000000   0.000000   -0.000018   33.647827   
-33.156110   -0.531913   0.002752   0.000000   0.000000   -0.000020   32.894827   
-32.348344   -0.448328   0.002318   0.000000   0.000000   -0.000024   32.127733   
-31.538107   -0.384249   0.001970   0.000000   -0.000000   -0.000016   31.348765   
-30.725910   -0.336804   0.001746   0.000000   -0.000000   -0.000044   30.559793   
-29.912446   -0.303906   0.001475   0.000000   -0.000000   0.000026   29.762408   
-29.098218   -0.283771   0.001510   0.000000   0.000000   -0.000142   28.958142   
-28.284526   -0.275580   0.000979   0.000000   0.000000   0.000236   28.148245   
-27.471715   -0.277607   0.001650   0.000000   0.000000   -0.000569   27.334810   
-26.662665   -0.290413   -0.000266   0.000000   0.000000   0.001055   26.518525   
-25.856429   -0.309413   0.002512   0.000000   -0.000000   -0.002077   25.704435   
-25.056039   -0.335504   -0.003089   0.000000   -0.000000   0.002730   24.888508   
-24.238606   -0.348155   0.000563   0.000000   -0.000000   -0.002011   24.066999   
-23.202635   -0.269350   0.017329   0.000000   -0.000000   -0.040440   23.078678   
-22.249637   -0.404277   -0.674276   0.000000   -0.000000   0.562807   21.829020   
-21.911962   -0.613860   -1.367259   0.000000   -0.000000   1.188719   21.157105   
-57.733228   -20.496225   -15.182004   3.533703   -0.028984   -7.564587   44.831332   
-51.685912   -15.043493   -7.425778   3.538444   -0.043108   -3.634078   43.595335   
-45.784753   -8.618983   0.250313   3.463806   -0.049248   0.184643   42.755787   
-45.538943   -6.873128   0.026106   3.215383   -0.027516   0.006354   42.920297   
-44.694186   -5.451107   -0.015939   2.838035   -0.004398   -0.012806   42.517832   
-43.847173   -4.359759   0.030309   2.410798   0.009311   0.008592   42.070691   
-43.034406   -3.537512   0.002400   1.980457   0.014914   -0.004420   41.527428   
-42.216636   -2.870479   0.015473   1.575110   0.015885   0.002280   40.960568   
-41.408117   -2.340801   0.006695   1.209372   0.014612   -0.001058   40.349670   
-40.593561   -1.906733   0.008820   0.889136   0.012531   0.000526   39.711314   
-39.779660   -1.555305   0.005767   0.614658   0.010372   -0.000217   39.044363   
-38.962924   -1.267884   0.005442   0.382911   0.008421   0.000109   38.354394   
-38.145715   -1.034267   0.004121   0.189295   0.006785   -0.000037   37.643590   
-37.327434   -0.844049   0.003502   0.028668   0.005451   0.000020   36.915043   
-36.508776   -0.689784   0.002795   -0.104018   0.004387   -0.000006   36.171095   
-35.689692   -0.564922   0.002308   -0.213408   0.003544   0.000002   35.414002   
-34.870370   -0.464319   0.001884   -0.303610   0.002881   -0.000002   34.645700   
-34.050830   -0.383709   0.001557   -0.378169   0.002360   -0.000002   33.867884   
-33.231129   -0.319681   0.001293   -0.440107   0.001955   -0.000002   33.082002   
-32.411273   -0.269490   0.001093   -0.491972   0.001640   -0.000006   32.289262   
-31.591292   -0.230997   0.000919   -0.535903   0.001399   0.000004   31.490651   
-30.771129   -0.202515   0.000838   -0.573687   0.001211   -0.000027   30.686952   
-29.950865   -0.182933   0.000654   -0.606801   0.001058   0.000050   29.878698   
-29.130242   -0.171288   0.000793   -0.636447   0.000898   -0.000133   29.066344   
-28.309650   -0.167711   0.000286   -0.663554   0.000690   0.000271   28.249756   
-27.488278   -0.171667   0.001122   -0.688791   0.000303   -0.000585   27.429430   
-26.667676   -0.186094   -0.000790   -0.712505   -0.000383   0.001125   26.603424   
-25.845781   -0.210861   0.002484   -0.734674   -0.001733   -0.002158   25.773794   
-25.024363   -0.256694   -0.002737   -0.754220   -0.003886   0.002872   24.930050   
-24.183013   -0.324172   0.002296   -0.767332   -0.007092   -0.001973   24.060970   
-23.118825   -0.371245   0.023636   -0.760382   -0.009841   -0.042540   22.985887   
-22.270024   -0.742170   -0.697200   -0.713100   0.002640   0.590503   21.710022   
-22.052900   -1.101546   -1.422265   -0.677011   0.015882   1.247682   21.069404   
-41.163468   -0.530376   -0.517452   5.708950   -0.151881   0.228984   41.827937   
-46.313516   -10.085313   -10.477958   9.913033   -0.079674   -2.821117   43.137895   
-42.109298   0.290491   -0.443824   3.545615   -0.128742   0.015079   42.670132   
-42.642599   1.309311   0.500396   1.732366   -0.110317   0.190878   43.680164   
-43.159363   0.919308   -0.214555   1.036688   -0.065634   -0.131141   43.566001   
-43.002185   0.869380   0.204658   0.726777   -0.037375   0.073858   43.563318   
-42.744712   0.584896   -0.019659   0.523580   -0.014023   -0.039727   43.041317   
-42.141683   0.489478   0.087562   0.368605   -0.007536   0.019214   42.437135   
-41.473178   0.362670   0.023988   0.241161   -0.000688   -0.009716   41.670130   
-40.697770   0.297997   0.044906   0.135034   -0.000751   0.004229   40.870818   
-39.902286   0.234525   0.025404   0.046904   0.000794   -0.001982   40.032989   
-39.079064   0.192124   0.026339   -0.026148   0.000050   0.000862   39.188761   
-38.251745   0.155201   0.019029   -0.086402   0.000325   -0.000217   38.339461   
-37.419145   0.127114   0.016619   -0.136000   -0.000085   0.000291   37.491967   
-36.587128   0.103783   0.013094   -0.176759   -0.000038   0.000174   36.646999   
-35.755496   0.085211   0.010882   -0.210251   -0.000187   0.000269   35.805505   
-34.925428   0.070122   0.008865   -0.237812   -0.000157   0.000281   34.967428   
-34.096744   0.058043   0.007322   -0.260566   -0.000199   0.000322   34.132471   
-33.269493   0.048430   0.006096   -0.279459   -0.000152   0.000330   33.300321   
-32.443392   0.040906   0.005136   -0.295284   -0.000186   0.000358   32.470478   
-31.618334   0.035147   0.004319   -0.308713   -0.000108   0.000399   31.642616   
-30.793635   0.031129   0.004000   -0.320292   -0.000234   0.000264   30.816221   
-29.969636   0.028299   0.002883   -0.330552   -0.000115   0.000777   29.990718   
-29.143844   0.028016   0.004259   -0.339801   -0.000552   -0.000598   29.165945   
-28.318823   0.027631   0.000035   -0.348646   -0.000494   0.002870   28.339120   
-27.485061   0.034500   0.008274   -0.357105   -0.001812   -0.005130   27.513434   
-26.654365   0.035271   -0.010323   -0.366592   -0.002454   0.012385   26.674468   
-25.795353   0.060380   0.025327   -0.378890   -0.005794   -0.023897   25.846646   
-24.959665   0.046447   -0.045391   -0.403571   -0.008447   0.045620   24.970403   
-24.066561   0.083080   0.073171   -0.480378   -0.013199   -0.072888   24.160147   
-23.023891   -0.018477   -0.085860   -0.692302   -0.018033   0.014730   23.009027   
-22.922218   -1.626268   -1.399500   -1.766010   0.060368   1.034307   21.928483   
-21.945080   -0.088240   -0.099507   -0.953489   -0.023239   -0.041648   21.913684   
-46.177988   -19.790566   -19.790566   -15.376921   0.000000   2.283446   37.699966   
-34.114278   -0.591659   0.334566   -2.882538   0.213420   5.136603   35.494946   
-32.476175   0.923750   0.368209   -1.147962   0.103091   3.002477   33.590750   
-33.803723   0.652061   0.115197   -0.498083   -0.012398   2.072181   34.389210   
-34.089442   0.577232   0.110562   -0.360231   -0.049846   1.372939   34.523467   
-34.264205   0.415640   0.121325   -0.253456   -0.062026   0.955246   34.576195   
-33.989083   0.316357   0.066288   -0.194672   -0.059960   0.602137   34.198818   
-33.575466   0.251374   0.079476   -0.134110   -0.049844   0.358677   33.747848   
-33.040106   0.194906   0.048491   -0.085226   -0.042210   0.154365   33.163534   
-32.447560   0.160135   0.049296   -0.042068   -0.033078   0.000016   32.552549   
-31.825552   0.127789   0.034868   -0.006224   -0.026990   -0.128129   31.907790   
-31.183863   0.105313   0.031245   0.023727   -0.021150   -0.229454   31.254783   
-30.535226   0.085427   0.024101   0.048442   -0.017087   -0.312858   30.594965   
-29.880701   0.070234   0.020321   0.068778   -0.013559   -0.380144   29.933498   
-29.224697   0.057430   0.016316   0.085474   -0.010972   -0.435333   29.271686   
-28.567282   0.047237   0.013477   0.099176   -0.008833   -0.480317   28.610272   
-27.909737   0.038896   0.011031   0.110437   -0.007212   -0.517291   27.949733   
-27.252007   0.032222   0.009132   0.119726   -0.005903   -0.547733   27.289977   
-26.594462   0.026870   0.007581   0.127429   -0.004912   -0.573000   26.631109   
-25.936836   0.022731   0.006461   0.133881   -0.004114   -0.594194   25.972871   
-25.279515   0.019418   0.005347   0.139332   -0.003559   -0.612169   25.315267   
-24.621518   0.017342   0.005127   0.144065   -0.003069   -0.627896   24.658014   
-23.964025   0.015340   0.003649   0.148137   -0.002846   -0.641718   24.000646   
-23.304175   0.015685   0.005412   0.151965   -0.002471   -0.655078   23.343802   
-22.644466   0.014304   0.001343   0.155128   -0.002445   -0.667213   22.683344   
-21.979704   0.018976   0.008551   0.158583   -0.001835   -0.681857   22.026869   
-21.307531   0.018572   -0.003194   0.160928   -0.001273   -0.694938   21.351006   
-20.636255   0.030168   0.015000   0.164118   0.000500   -0.718082   20.698201   
-19.909072   0.040016   -0.006036   0.169616   0.005400   -0.737350   19.969151   
-19.278543   0.035975   0.008784   0.183508   0.010436   -0.793462   19.352423   
-18.394544   0.092649   0.065269   0.267953   0.022510   -0.887638   18.543233   
-18.564327   -0.230421   0.030610   0.476636   -0.030795   -1.166735   18.594467   
-19.753634   -4.707418   -7.489427   2.687635   -0.219352   1.056039   14.745495   
-39.063934   -13.117404   -8.422110   -2.902928   0.259453   -3.215833   30.307332   
-38.520660   -10.619496   -4.227029   -2.846866   0.398562   -1.900456   32.651466   
-37.390516   -7.089791   0.009752   -2.700924   0.526445   -0.552362   34.767354   
-36.487656   -5.414385   0.044597   -2.474251   0.469031   -0.497835   34.431021   
-35.807712   -4.292380   0.021920   -2.176760   0.375106   -0.454111   34.110822   
-35.112773   -3.446997   0.015457   -1.849664   0.287584   -0.403086   33.699963   
-34.450308   -2.793346   0.015537   -1.522164   0.217214   -0.360669   33.267366   
-33.791744   -2.273131   0.010003   -1.212659   0.164017   -0.333649   32.796555   
-33.138528   -1.852103   0.009968   -0.932089   0.124754   -0.312059   32.305629   
-32.485242   -1.510497   0.007003   -0.685211   0.095864   -0.296674   31.789064   
-31.831298   -1.231470   0.006385   -0.472737   0.074496   -0.283881   31.253196   
-31.176865   -1.004308   0.004864   -0.292740   0.058489   -0.273911   30.698450   
-30.521682   -0.819036   0.004168   -0.141968   0.046350   -0.265581   30.127905   
-29.866259   -0.668470   0.003317   -0.016639   0.037022   -0.258846   29.543321   
-29.210507   -0.546224   0.002761   0.087044   0.029783   -0.253256   28.946745   
-28.554656   -0.447351   0.002244   0.172615   0.024120   -0.248676   28.339876   
-27.898677   -0.367663   0.001856   0.243231   0.019673   -0.244887   27.724246   
-27.242648   -0.303830   0.001529   0.301633   0.016181   -0.241755   27.101192   
-26.586550   -0.253121   0.001281   0.350164   0.013457   -0.239149   26.471838   
-25.930422   -0.213386   0.001067   0.390806   0.011362   -0.236960   25.837138   
-25.274217   -0.182886   0.000941   0.425226   0.009802   -0.235104   25.197870   
-24.617983   -0.160363   0.000770   0.454817   0.008712   -0.233477   24.554610   
-23.961632   -0.144770   0.000796   0.480731   0.008060   -0.232047   23.907911   
-23.305196   -0.135632   0.000567   0.503905   0.007839   -0.230638   23.257825   
-22.648749   -0.132494   0.000847   0.525081   0.008066   -0.229303   22.605063   
-21.991826   -0.135744   0.000460   0.544806   0.008765   -0.227580   21.948389   
-21.336227   -0.146378   0.000939   0.563465   0.009929   -0.225703   21.289923   
-20.677692   -0.165658   0.001071   0.581173   0.011419   -0.222561   20.624157   
-20.025881   -0.201633   0.000179   0.597531   0.012771   -0.220535   19.956537   
-19.348795   -0.251284   0.011770   0.609802   0.012824   -0.231420   19.263700   
-18.723129   -0.364030   0.015172   0.608693   0.009036   -0.273923   18.588203   
-18.172121   -0.998758   -1.542456   0.563891   -0.011907   0.179311   17.113402   
-17.889914   -1.546524   -3.092429   0.524713   -0.029565   0.664548   15.951709   
-41.398943   -14.365080   -8.846728   0.000000   -0.000000   -3.980383   31.847270   
-40.900248   -12.332610   -4.490968   0.000000   -0.000000   -2.513940   34.082183   
-39.328326   -9.498815   -0.061577   0.000000   -0.000000   -0.962552   35.547218   
-37.598027   -8.032409   0.017996   0.000000   -0.000000   -0.834016   34.344417   
-36.344146   -6.752122   0.011425   0.000000   -0.000000   -0.744157   33.521996   
-35.276757   -5.602262   0.013385   0.000000   -0.000000   -0.642024   32.868735   
-34.396399   -4.618325   0.018858   0.000000   -0.000000   -0.548554   32.365245   