<VTKFile type="UnstructuredGrid"  version="0.1"   > 
<UnstructuredGrid> 
<Piece  NumberOfPoints="  289" NumberOfCells=" 256"> 
<Points> 
<DataArray  type="Float64"  NumberOfComponents="3"  format="ascii" > 
0.000000 0.000000 0.000000 
25.000000 0.000000 0.000000 
50.000000 0.000000 0.000000 
75.000000 0.000000 0.000000 
100.000000 0.000000 0.000000 
125.000000 0.000000 0.000000 
150.000000 0.000000 0.000000 
175.000000 0.000000 0.000000 
200.000000 0.000000 0.000000 
225.000000 0.000000 0.000000 
250.000000 0.000000 0.000000 
275.000000 0.000000 0.000000 
300.000000 0.000000 0.000000 
325.000000 0.000000 0.000000 
350.000000 0.000000 0.000000 
375.000000 0.000000 0.000000 
400.000000 0.000000 0.000000 
0.000000 25.000000 0.000000 
25.000000 25.000000 0.000000 
50.000000 25.000000 0.000000 
75.000000 25.000000 0.000000 
100.000000 25.000000 0.000000 
125.000000 25.000000 0.000000 
150.000000 25.000000 0.000000 
175.000000 25.000000 0.000000 
200.000000 25.000000 0.000000 
225.000000 25.000000 0.000000 
250.000000 25.000000 0.000000 
275.000000 25.000000 0.000000 
300.000000 25.000000 0.000000 
325.000000 25.000000 0.000000 
350.000000 25.000000 0.000000 
375.000000 25.000000 0.000000 
400.000000 25.000000 0.000000 
0.000000 50.000000 0.000000 
25.000000 50.000000 0.000000 
50.000000 50.000000 0.000000 
75.000000 50.000000 0.000000 
100.000000 50.000000 0.000000 
125.000000 50.000000 0.000000 
150.000000 50.000000 0.000000 
175.000000 50.000000 0.000000 
200.000000 50.000000 0.000000 
225.000000 50.000000 0.000000 
250.000000 50.000000 0.000000 
275.000000 50.000000 0.000000 
300.000000 50.000000 0.000000 
325.000000 50.000000 0.000000 
350.000000 50.000000 0.000000 
375.000000 50.000000 0.000000 
400.000000 50.000000 0.000000 
0.000000 75.000000 0.000000 
25.000000 75.000000 0.000000 
50.000000 75.000000 0.000000 
75.000000 75.000000 0.000000 
100.000000 75.000000 0.000000 
125.000000 75.000000 0.000000 
150.000000 75.000000 0.000000 
175.000000 75.000000 0.000000 
200.000000 75.000000 0.000000 
225.000000 75.000000 0.000000 
250.000000 75.000000 0.000000 
275.000000 75.000000 0.000000 
300.000000 75.000000 0.000000 
325.000000 75.000000 0.000000 
350.000000 75.000000 0.000000 
375.000000 75.000000 0.000000 
400.000000 75.000000 0.000000 
0.000000 100.000000 0.000000 
25.000000 100.000000 0.000000 
50.000000 100.000000 0.000000 
75.000000 100.000000 0.000000 
100.000000 100.000000 0.000000 
125.000000 100.000000 0.000000 
150.000000 100.000000 0.000000 
175.000000 100.000000 0.000000 
200.000000 100.000000 0.000000 
225.000000 100.000000 0.000000 
250.000000 100.000000 0.000000 
275.000000 100.000000 0.000000 
300.000000 100.000000 0.000000 
325.000000 100.000000 0.000000 
350.000000 100.000000 0.000000 
375.000000 100.000000 0.000000 
400.000000 100.000000 0.000000 
0.000000 125.000000 0.000000 
25.000000 125.000000 0.000000 
50.000000 125.000000 0.000000 
75.000000 125.000000 0.000000 
100.000000 125.000000 0.000000 
125.000000 125.000000 0.000000 
150.000000 125.000000 0.000000 
175.000000 125.000000 0.000000 
200.000000 125.000000 0.000000 
225.000000 125.000000 0.000000 
250.000000 125.000000 0.000000 
275.000000 125.000000 0.000000 
300.000000 125.000000 0.000000 
325.000000 125.000000 0.000000 
350.000000 125.000000 0.000000 
375.000000 125.000000 0.000000 
400.000000 125.000000 0.000000 
0.000000 150.000000 0.000000 
25.000000 150.000000 0.000000 
50.000000 150.000000 0.000000 
75.000000 150.000000 0.000000 
100.000000 150.000000 0.000000 
125.000000 150.000000 0.000000 
150.000000 150.000000 0.000000 
175.000000 150.000000 0.000000 
200.000000 150.000000 0.000000 
225.000000 150.000000 0.000000 
250.000000 150.000000 0.000000 
275.000000 150.000000 0.000000 
300.000000 150.000000 0.000000 
325.000000 150.000000 0.000000 
350.000000 150.000000 0.000000 
375.000000 150.000000 0.000000 
400.000000 150.000000 0.000000 
0.000000 175.000000 0.000000 
25.000000 175.000000 0.000000 
50.000000 175.000000 0.000000 
75.000000 175.000000 0.000000 
100.000000 175.000000 0.000000 
125.000000 175.000000 0.000000 
150.000000 175.000000 0.000000 
175.000000 175.000000 0.000000 
200.000000 175.000000 0.000000 
225.000000 175.000000 0.000000 
250.000000 175.000000 0.000000 
275.000000 175.000000 0.000000 
300.000000 175.000000 0.000000 
325.000000 175.000000 0.000000 
350.000000 175.000000 0.000000 
375.000000 175.000000 0.000000 
400.000000 175.000000 0.000000 
0.000000 200.000000 0.000000 
25.000000 200.000000 0.000000 
50.000000 200.000000 0.000000 
75.000000 200.000000 0.000000 
100.000000 200.000000 0.000000 
125.000000 200.000000 0.000000 
150.000000 200.000000 0.000000 
175.000000 200.000000 0.000000 
200.000000 200.000000 0.000000 
225.000000 200.000000 0.000000 
250.000000 200.000000 0.000000 
275.000000 200.000000 0.000000 
300.000000 200.000000 0.000000 
325.000000 200.000000 0.000000 
350.000000 200.000000 0.000000 
375.000000 200.000000 0.000000 
400.000000 200.000000 0.000000 
0.000000 225.000000 0.000000 
25.000000 225.000000 0.000000 
50.000000 225.000000 0.000000 
75.000000 225.000000 0.000000 
100.000000 225.000000 0.000000 
125.000000 225.000000 0.000000 
150.000000 225.000000 0.000000 
175.000000 225.000000 0.000000 
200.000000 225.000000 0.000000 
225.000000 225.000000 0.000000 
250.000000 225.000000 0.000000 
275.000000 225.000000 0.000000 
300.000000 225.000000 0.000000 
325.000000 225.000000 0.000000 
350.000000 225.000000 0.000000 
375.000000 225.000000 0.000000 
400.000000 225.000000 0.000000 
0.000000 250.000000 0.000000 
25.000000 250.000000 0.000000 
50.000000 250.000000 0.000000 
75.000000 250.000000 0.000000 
100.000000 250.000000 0.000000 
125.000000 250.000000 0.000000 
150.000000 250.000000 0.000000 
175.000000 250.000000 0.000000 
200.000000 250.000000 0.000000 
225.000000 250.000000 0.000000 
250.000000 250.000000 0.000000 
275.000000 250.000000 0.000000 
300.000000 250.000000 0.000000 
325.000000 250.000000 0.000000 
350.000000 250.000000 0.000000 
375.000000 250.000000 0.000000 
400.000000 250.000000 0.000000 
0.000000 275.000000 0.000000 
25.000000 275.000000 0.000000 
50.000000 275.000000 0.000000 
75.000000 275.000000 0.000000 
100.000000 275.000000 0.000000 
125.000000 275.000000 0.000000 
150.000000 275.000000 0.000000 
175.000000 275.000000 0.000000 
200.000000 275.000000 0.000000 
225.000000 275.000000 0.000000 
250.000000 275.000000 0.000000 
275.000000 275.000000 0.000000 
300.000000 275.000000 0.000000 
325.000000 275.000000 0.000000 
350.000000 275.000000 0.000000 
375.000000 275.000000 0.000000 
400.000000 275.000000 0.000000 
0.000000 300.000000 0.000000 
25.000000 300.000000 0.000000 
50.000000 300.000000 0.000000 
75.000000 300.000000 0.000000 
100.000000 300.000000 0.000000 
125.000000 300.000000 0.000000 
150.000000 300.000000 0.000000 
175.000000 300.000000 0.000000 
200.000000 300.000000 0.000000 
225.000000 300.000000 0.000000 
250.000000 300.000000 0.000000 
275.000000 300.000000 0.000000 
300.000000 300.000000 0.000000 
325.000000 300.000000 0.000000 
350.000000 300.000000 0.000000 
375.000000 300.000000 0.000000 
400.000000 300.000000 0.000000 
0.000000 325.000000 0.000000 
25.000000 325.000000 0.000000 
50.000000 325.000000 0.000000 
75.000000 325.000000 0.000000 
100.000000 325.000000 0.000000 
125.000000 325.000000 0.000000 
150.000000 325.000000 0.000000 
175.000000 325.000000 0.000000 
200.000000 325.000000 0.000000 
225.000000 325.000000 0.000000 
250.000000 325.000000 0.000000 
275.000000 325.000000 0.000000 
300.000000 325.000000 0.000000 
325.000000 325.000000 0.000000 
350.000000 325.000000 0.000000 
375.000000 325.000000 0.000000 
400.000000 325.000000 0.000000 
0.000000 350.000000 0.000000 
25.000000 350.000000 0.000000 
50.000000 350.000000 0.000000 
75.000000 350.000000 0.000000 
100.000000 350.000000 0.000000 
125.000000 350.000000 0.000000 
150.000000 350.000000 0.000000 
175.000000 350.000000 0.000000 
200.000000 350.000000 0.000000 
225.000000 350.000000 0.000000 
250.000000 350.000000 0.000000 
275.000000 350.000000 0.000000 
300.000000 350.000000 0.000000 
325.000000 350.000000 0.000000 
350.000000 350.000000 0.000000 
375.000000 350.000000 0.000000 
400.000000 350.000000 0.000000 
0.000000 375.000000 0.000000 
25.000000 375.000000 0.000000 
50.000000 375.000000 0.000000 
75.000000 375.000000 0.000000 
100.000000 375.000000 0.000000 
125.000000 375.000000 0.000000 
150.000000 375.000000 0.000000 
175.000000 375.000000 0.000000 
200.000000 375.000000 0.000000 
225.000000 375.000000 0.000000 
250.000000 375.000000 0.000000 
275.000000 375.000000 0.000000 
300.000000 375.000000 0.000000 
325.000000 375.000000 0.000000 
350.000000 375.000000 0.000000 
375.000000 375.000000 0.000000 
400.000000 375.000000 0.000000 
0.000000 400.000000 0.000000 
25.000000 400.000000 0.000000 
50.000000 400.000000 0.000000 
75.000000 400.000000 0.000000 
100.000000 400.000000 0.000000 
125.000000 400.000000 0.000000 
150.000000 400.000000 0.000000 
175.000000 400.000000 0.000000 
200.000000 400.000000 0.000000 
225.000000 400.000000 0.000000 
250.000000 400.000000 0.000000 
275.000000 400.000000 0.000000 
300.000000 400.000000 0.000000 
325.000000 400.000000 0.000000 
350.000000 400.000000 0.000000 
375.000000 400.000000 0.000000 
400.000000 400.000000 0.000000 
</DataArray> 
</Points> 
<Cells> 
<DataArray  type="Int32"  Name="connectivity"  format="ascii"> 
0 1 18 17 
1 2 19 18 
2 3 20 19 
3 4 21 20 
4 5 22 21 
5 6 23 22 
6 7 24 23 
7 8 25 24 
8 9 26 25 
9 10 27 26 
10 11 28 27 
11 12 29 28 
12 13 30 29 
13 14 31 30 
14 15 32 31 
15 16 33 32 
17 18 35 34 
18 19 36 35 
19 20 37 36 
20 21 38 37 
21 22 39 38 
22 23 40 39 
23 24 41 40 
24 25 42 41 
25 26 43 42 
26 27 44 43 
27 28 45 44 
28 29 46 45 
29 30 47 46 
30 31 48 47 
31 32 49 48 
32 33 50 49 
34 35 52 51 
35 36 53 52 
36 37 54 53 
37 38 55 54 
38 39 56 55 
39 40 57 56 
40 41 58 57 
41 42 59 58 
42 43 60 59 
43 44 61 60 
44 45 62 61 
45 46 63 62 
46 47 64 63 
47 48 65 64 
48 49 66 65 
49 50 67 66 
51 52 69 68 
52 53 70 69 
53 54 71 70 
54 55 72 71 
55 56 73 72 
56 57 74 73 
57 58 75 74 
58 59 76 75 
59 60 77 76 
60 61 78 77 
61 62 79 78 
62 63 80 79 
63 64 81 80 
64 65 82 81 
65 66 83 82 
66 67 84 83 
68 69 86 85 
69 70 87 86 
70 71 88 87 
71 72 89 88 
72 73 90 89 
73 74 91 90 
74 75 92 91 
75 76 93 92 
76 77 94 93 
77 78 95 94 
78 79 96 95 
79 80 97 96 
80 81 98 97 
81 82 99 98 
82 83 100 99 
83 84 101 100 
85 86 103 102 
86 87 104 103 
87 88 105 104 
88 89 106 105 
89 90 107 106 
90 91 108 107 
91 92 109 108 
92 93 110 109 
93 94 111 110 
94 95 112 111 
95 96 113 112 
96 97 114 113 
97 98 115 114 
98 99 116 115 
99 100 117 116 
100 101 118 117 
102 103 120 119 
103 104 121 120 
104 105 122 121 
105 106 123 122 
106 107 124 123 
107 108 125 124 
108 109 126 125 
109 110 127 126 
110 111 128 127 
111 112 129 128 
112 113 130 129 
113 114 131 130 
114 115 132 131 
115 116 133 132 
116 117 134 133 
117 118 135 134 
119 120 137 136 
120 121 138 137 
121 122 139 138 
122 123 140 139 
123 124 141 140 
124 125 142 141 
125 126 143 142 
126 127 144 143 
127 128 145 144 
128 129 146 145 
129 130 147 146 
130 131 148 147 
131 132 149 148 
132 133 150 149 
133 134 151 150 
134 135 152 151 
136 137 154 153 
137 138 155 154 
138 139 156 155 
139 140 157 156 
140 141 158 157 
141 142 159 158 
142 143 160 159 
143 144 161 160 
144 145 162 161 
145 146 163 162 
146 147 164 163 
147 148 165 164 
148 149 166 165 
149 150 167 166 
150 151 168 167 
151 152 169 168 
153 154 171 170 
154 155 172 171 
155 156 173 172 
156 157 174 173 
157 158 175 174 
158 159 176 175 
159 160 177 176 
160 161 178 177 
161 162 179 178 
162 163 180 179 
163 164 181 180 
164 165 182 181 
165 166 183 182 
166 167 184 183 
167 168 185 184 
168 169 186 185 
170 171 188 187 
171 172 189 188 
172 173 190 189 
173 174 191 190 
174 175 192 191 
175 176 193 192 
176 177 194 193 
177 178 195 194 
178 179 196 195 
179 180 197 196 
180 181 198 197 
181 182 199 198 
182 183 200 199 
183 184 201 200 
184 185 202 201 
185 186 203 202 
187 188 205 204 
188 189 206 205 
189 190 207 206 
190 191 208 207 
191 192 209 208 
192 193 210 209 
193 194 211 210 
194 195 212 211 
195 196 213 212 
196 197 214 213 
197 198 215 214 
198 199 216 215 
199 200 217 216 
200 201 218 217 
201 202 219 218 
202 203 220 219 
204 205 222 221 
205 206 223 222 
206 207 224 223 
207 208 225 224 
208 209 226 225 
209 210 227 226 
210 211 228 227 
211 212 229 228 
212 213 230 229 
213 214 231 230 
214 215 232 231 
215 216 233 232 
216 217 234 233 
217 218 235 234 
218 219 236 235 
219 220 237 236 
221 222 239 238 
222 223 240 239 
223 224 241 240 
224 225 242 241 
225 226 243 242 
226 227 244 243 
227 228 245 244 
228 229 246 245 
229 230 247 246 
230 231 248 247 
231 232 249 248 
232 233 250 249 
233 234 251 250 
234 235 252 251 
235 236 253 252 
236 237 254 253 
238 239 256 255 
239 240 257 256 
240 241 258 257 
241 242 259 258 
242 243 260 259 
243 244 261 260 
244 245 262 261 
245 246 263 262 
246 247 264 263 
247 248 265 264 
248 249 266 265 
249 250 267 266 
250 251 268 267 
251 252 269 268 
252 253 270 269 
253 254 271 270 
255 256 273 272 
256 257 274 273 
257 258 275 274 
258 259 276 275 
259 260 277 276 
260 261 278 277 
261 262 279 278 
262 263 280 279 
263 264 281 280 
264 265 282 281 
265 266 283 282 
266 267 284 283 
267 268 285 284 
268 269 286 285 
269 270 287 286 
270 271 288 287 
</DataArray> 
<DataArray  type="Int32"  Name="offsets"  format="ascii"> 
4 
8 
12 
16 
20 
24 
28 
32 
36 
40 
44 
48 
52 
56 
60 
64 
68 
72 
76 
80 
84 
88 
92 
96 
100 
104 
108 
112 
116 
120 
124 
128 
132 
136 
140 
144 
148 
152 
156 
160 
164 
168 
172 
176 
180 
184 
188 
192 
196 
200 
204 
208 
212 
216 
220 
224 
228 
232 
236 
240 
244 
248 
252 
256 
260 
264 
268 
272 
276 
280 
284 
288 
292 
296 
300 
304 
308 
312 
316 
320 
324 
328 
332 
336 
340 
344 
348 
352 
356 
360 
364 
368 
372 
376 
380 
384 
388 
392 
396 
400 
404 
408 
412 
416 
420 
424 
428 
432 
436 
440 
444 
448 
452 
456 
460 
464 
468 
472 
476 
480 
484 
488 
492 
496 
500 
504 
508 
512 
516 
520 
524 
528 
532 
536 
540 
544 
548 
552 
556 
560 
564 
568 
572 
576 
580 
584 
588 
592 
596 
600 
604 
608 
612 
616 
620 
624 
628 
632 
636 
640 
644 
648 
652 
656 
660 
664 
668 
672 
676 
680 
684 
688 
692 
696 
700 
704 
708 
712 
716 
720 
724 
728 
732 
736 
740 
744 
748 
752 
756 
760 
764 
768 
772 
776 
780 
784 
788 
792 
796 
800 
804 
808 
812 
816 
820 
824 
828 
832 
836 
840 
844 
848 
852 
856 
860 
864 
868 
872 
876 
880 
884 
888 
892 
896 
900 
904 
908 
912 
916 
920 
924 
928 
932 
936 
940 
944 
948 
952 
956 
960 
964 
968 
972 
976 
980 
984 
988 
992 
996 
1000 
1004 
1008 
1012 
1016 
1020 
1024 
</DataArray> 
<DataArray  type="UInt8"  Name="types"  format="ascii"> 
9 
9 
9 
9 
9 
9 
9 
9 
9 
9 
9 
9 
9 
9 
9 
9 
9 
9 
9 
9 
9 
9 
9 
9 
9 
9 
9 
9 
9 
9 
9 
9 
9 
9 
9 
9 
9 
9 
9 
9 
9 
9 
9 
9 
9 
9 
9 
9 
9 
9 
9 
9 
9 
9 
9 
9 
9 
9 
9 
9 
9 
9 
9 
9 
9 
9 
9 
9 
9 
9 
9 
9 
9 
9 
9 
9 
9 
9 
9 
9 
9 
9 
9 
9 
9 
9 
9 
9 
9 
9 
9 
9 
9 
9 
9 
9 
9 
9 
9 
9 
9 
9 
9 
9 
9 
9 
9 
9 
9 
9 
9 
9 
9 
9 
9 
9 
9 
9 
9 
9 
9 
9 
9 
9 
9 
9 
9 
9 
9 
9 
9 
9 
9 
9 
9 
9 
9 
9 
9 
9 
9 
9 
9 
9 
9 
9 
9 
9 
9 
9 
9 
9 
9 
9 
9 
9 
9 
9 
9 
9 
9 
9 
9 
9 
9 
9 
9 
9 
9 
9 
9 
9 
9 
9 
9 
9 
9 
9 
9 
9 
9 
9 
9 
9 
9 
9 
9 
9 
9 
9 
9 
9 
9 
9 
9 
9 
9 
9 
9 
9 
9 
9 
9 
9 
9 
9 
9 
9 
9 
9 
9 
9 
9 
9 
9 
9 
9 
9 
9 
9 
9 
9 
9 
9 
9 
9 
9 
9 
9 
9 
9 
9 
9 
9 
9 
9 
9 
9 
9 
9 
9 
9 
9 
9 
9 
9 
9 
9 
9 
9 
9 
9 
9 
9 
9 
9 
</DataArray> 
</Cells> 
<PointData  Vectors="sigma"> 
<DataArray  type="Float64"  Name="sigma" NumberOfComponents="3" format="ascii"> 
0.000000   0.000000   0.000000   
0.000000   0.000000   0.000000   
0.000000   0.000000   0.000000   
0.000000   0.000000   0.000000   
0.000000   0.000000   0.000000   
0.000000   0.000000   0.000000   
0.000000   0.000000   0.000000   
0.000000   0.000000   0.000000   
0.000000   0.000000   0.000000   
0.000000   0.000000   0.000000   
0.000000   0.000000   0.000000   
0.000000   0.000000   0.000000   
0.000000   0.000000   0.000000   
0.000000   0.000000   0.000000   
0.000000   0.000000   0.000000   
0.000000   0.000000   0.000000   
0.000000   0.000000   0.000000   
0.000000   0.000000   0.000000   
0.000000   0.000000   0.000000   
0.000000   0.000000   0.000000   
0.000000   0.000000   0.000000   
0.000000   0.000000   0.000000   
0.000000   0.000000   0.000000   
0.000000   0.000000   0.000000   
0.000000   0.000000   0.000000   
0.000000   0.000000   0.000000   
0.000000   0.000000   0.000000   
0.000000   0.000000   0.000000   
0.000000   0.000000   0.000000   
0.000000   0.000000   0.000000   
0.000000   0.000000   0.000000   
0.000000   0.000000   0.000000   
0.000000   0.000000   0.000000   
0.000000   0.000000   0.000000   
0.000000   0.000000   0.000000   
0.000000   0.000000   0.000000   
0.000000   0.000000   0.000000   
0.000000   0.000000   0.000000   
0.000000   0.000000   0.000000   
0.000000   0.000000   0.000000   
0.000000   0.000000   0.000000   
0.000000   0.000000   0.000000   
0.000000   0.000000   0.000000   
0.000000   0.000000   0.000000   
0.000000   0.000000   0.000000   
0.000000   0.000000   0.000000   
0.000000   0.000000   0.000000   
0.000000   0.000000   0.000000   
0.000000   0.000000   0.000000   
0.000000   0.000000   0.000000   
0.000000   0.000000   0.000000   
0.000000   0.000000   0.000000   
0.000000   0.000000   0.000000   
0.000000   0.000000   0.000000   
0.000000   0.000000   0.000000   
0.000000   0.000000   0.000000   
0.000000   0.000000   0.000000   
0.000000   0.000000   0.000000   
0.000000   0.000000   0.000000   
0.000000   0.000000   0.000000   
0.000000   0.000000   0.000000   
0.000000   0.000000   0.000000   
0.000000   0.000000   0.000000   
0.000000   0.000000   0.000000   
0.000000   0.000000   0.000000   
0.000000   0.000000   0.000000   
0.000000   0.000000   0.000000   
0.000000   0.000000   0.000000   
0.000000   0.000000   0.000000   
0.000000   0.000000   0.000000   
0.000000   0.000000   0.000000   
0.000000   0.000000   0.000000   
0.000000   0.000000   0.000000   
0.000000   0.000000   0.000000   
0.000000   0.000000   0.000000   
0.000000   0.000000   0.000000   
0.000000   0.000000   0.000000   
0.000000   0.000000   0.000000   
0.000000   0.000000   0.000000   
0.000000   0.000000   0.000000   
0.000000   0.000000   0.000000   
0.000000   0.000000   0.000000   
0.000000   0.000000   0.000000   
0.000000   0.000000   0.000000   
0.000000   0.000000   0.000000   
0.000000   0.000000   0.000000   
0.000000   0.000000   0.000000   
0.000000   0.000000   0.000000   
0.000000   0.000000   0.000000   
0.000000   0.000000   0.000000   
0.000000   0.000000   0.000000   
0.000000   0.000000   0.000000   
0.000000   0.000000   0.000000   
0.000000   0.000000   0.000000   
0.000000   0.000000   0.000000   
0.000000   0.000000   0.000000   
0.000000   0.000000   0.000000   
0.000000   0.000000   0.000000   
0.000000   0.000000   0.000000   
0.000000   0.000000   0.000000   
0.000000   0.000000   0.000000   
0.000000   0.000000   0.000000   
0.000000   0.000000   0.000000   
0.000000   0.000000   0.000000   
0.000000   0.000000   0.000000   
0.000000   0.000000   0.000000   
0.000000   0.000000   0.000000   
0.000000   0.000000   0.000000   
0.000000   0.000000   0.000000   
0.000000   0.000000   0.000000   
0.000000   0.000000   0.000000   
0.000000   0.000000   0.000000   
0.000000   0.000000   0.000000   
0.000000   0.000000   0.000000   
0.000000   0.000000   0.000000   
0.000000   0.000000   0.000000   
0.000000   0.000000   0.000000   
0.000000   0.000000   0.000000   
0.000000   0.000000   0.000000   
0.000000   0.000000   0.000000   
0.000000   0.000000   0.000000   
0.000000   0.000000   0.000000   
0.000000   0.000000   0.000000   
0.000000   0.000000   0.000000   
0.000000   0.000000   0.000000   
0.000000   0.000000   0.000000   
0.000000   0.000000   0.000000   
0.000000   0.000000   0.000000   
0.000000   0.000000   0.000000   
0.000000   0.000000   0.000000   
0.000000   0.000000   0.000000   
0.000000   0.000000   0.000000   
0.000000   0.000000   0.000000   
0.000000   0.000000   0.000000   
0.000000   0.000000   0.000000   
0.000000   0.000000   0.000000   
0.000000   0.000000   0.000000   
0.000000   0.000000   0.000000   
0.000000   0.000000   0.000000   
0.000000   0.000000   0.000000   
0.000000   0.000000   0.000000   
0.000000   0.000000   0.000000   
0.000000   0.000000   0.000000   
0.000000   0.000000   0.000000   
0.000000   0.000000   0.000000   
0.000000   0.000000   0.000000   
0.000000   0.000000   0.000000   
0.000000   0.000000   0.000000   
0.000000   0.000000   0.000000   
0.000000   0.000000   0.000000   
0.000000   0.000000   0.000000   
0.000000   0.000000   0.000000   
0.000000   0.000000   0.000000   
0.000000   0.000000   0.000000   
0.000000   0.000000   0.000000   
0.000000   0.000000   0.000000   
0.000000   0.000000   0.000000   
0.000000   0.000000   0.000000   
0.000000   0.000000   0.000000   
0.000000   0.000000   0.000000   
0.000000   0.000000   0.000000   
0.000000   0.000000   0.000000   
0.000000   0.000000   0.000000   
0.000000   0.000000   0.000000   
0.000000   0.000000   0.000000   
0.000000   0.000000   0.000000   
0.000000   0.000000   0.000000   
0.000000   0.000000   0.000000   
0.000000   0.000000   0.000000   
0.000000   0.000000   0.000000   
0.000000   0.000000   0.000000   
0.000000   0.000000   0.000000   
0.000000   0.000000   0.000000   
0.000000   0.000000   0.000000   
0.000000   0.000000   0.000000   
0.000000   0.000000   0.000000   
0.000000   0.000000   0.000000   
0.000000   0.000000   0.000000   
0.000000   0.000000   0.000000   
0.000000   0.000000   0.000000   
0.000000   0.000000   0.000000   
0.000000   0.000000   0.000000   
0.000000   0.000000   0.000000   
0.000000   0.000000   0.000000   
0.000000   0.000000   0.000000   
0.000000   0.000000   0.000000   
0.000000   0.000000   0.000000   
0.000000   0.000000   0.000000   
0.000000   0.000000   0.000000   
0.000000   0.000000   0.000000   
0.000000   0.000000   0.000000   
0.000000   0.000000   0.000000   
0.000000   0.000000   0.000000   
0.000000   0.000000   0.000000   
0.000000   0.000000   0.000000   
0.000000   0.000000   0.000000   
0.000000   0.000000   0.000000   
0.000000   0.000000   0.000000   
0.000000   0.000000   0.000000   
0.000000   0.000000   0.000000   
0.000000   0.000000   0.000000   
0.000000   0.000000   0.000000   
0.000000   0.000000   0.000000   
0.000000   0.000000   0.000000   
0.000000   0.000000   0.000000   
0.000000   0.000000   0.000000   
0.000000   0.000000   0.000000   
0.000000   0.000000   0.000000   
0.000000   0.000000   0.000000   
0.000000   0.000000   0.000000   
0.000000   0.000000   0.000000   
0.000000   0.000000   0.000000   
0.000000   0.000000   0.000000   
0.000000   0.000000   0.000000   
0.000000   0.000000   0.000000   
0.000000   0.000000   0.000000   
0.000000   0.000000   0.000000   
0.000000   0.000000   0.000000   
0.000000   0.000000   0.000000   
0.000000   0.000000   0.000000   
0.000000   0.000000   0.000000   
0.000000   0.000000   0.000000   
0.000000   0.000000   0.000000   
0.000000   0.000000   0.000000   
0.000000   0.000000   0.000000   
0.000000   0.000000   0.000000   
0.000000   0.000000   0.000000   
0.000000   0.000000   0.000000   
0.000000   0.000000   0.000000   
0.000000   0.000000   0.000000   
0.000000   0.000000   0.000000   
0.000000   0.000000   0.000000   
0.000000   0.000000   0.000000   
0.000000   0.000000   0.000000   
0.000000   0.000000   0.000000   
0.000000   0.000000   0.000000   
0.000000   0.000000   0.000000   
0.000000   0.000000   0.000000   
0.000000   0.000000   0.000000   
0.000000   0.000000   0.000000   
0.000000   0.000000   0.000000   
0.000000   0.000000   0.000000   
0.000000   0.000000   0.000000   
0.000000   0.000000   0.000000   
0.000000   0.000000   0.000000   
0.000000   0.000000   0.000000   
0.000000   0.000000   0.000000   
0.000000   0.000000   0.000000   
0.000000   0.000000   0.000000   
0.000000   0.000000   0.000000   
0.000000   0.000000   0.000000   
0.000000   0.000000   0.000000   
0.000000   0.000000   0.000000   
0.000000   0.000000   0.000000   
0.000000   0.000000   0.000000   
0.000000   0.000000   0.000000   
0.000000   0.000000   0.000000   
0.000000   0.000000   0.000000   
0.000000   0.000000   0.000000   
0.000000   0.000000   0.000000   
0.000000   0.000000   0.000000   
0.000000   0.000000   0.000000   
0.000000   0.000000   0.000000   
0.000000   0.000000   0.000000   
0.000000   0.000000   0.000000   
0.000000   0.000000   0.000000   
0.000000   0.000000   0.000000   
0.000000   0.000000   0.000000   
0.000000   0.000000   0.000000   
0.000000   0.000000   0.000000   
0.000000   0.000000   0.000000   
0.000000   0.000000   0.000000   
0.000000   0.000000   0.000000   
0.000000   0.000000   0.000000   
0.000000   0.000000   0.000000   
0.000000   0.000000   0.000000   
0.000000   0.000000   0.000000   
0.000000   0.000000   0.000000   
0.000000   0.000000   0.000000   
0.000000   0.000000   0.000000   
0.000000   0.000000   0.000000   
0.000000   0.000000   0.000000   
0.000000   0.000000   0.000000   
0.000000   0.000000   0.000000   
0.000000   0.000000   0.000000   
0.000000   0.000000   0.000000   
0.000000   0.000000   0.000000   
0.000000   0.000000   0.000000   
0.000000   0.000000   0.000000   
</DataArray> 
<DataArray  type="Float64"  Name="U" NumberOfComponents="3" format="ascii"> 
  0.00000000     0.00000000     0.00000000   
  0.00000000     0.00000000     0.00000000   
  0.00000000     0.00000000     0.00000000   
  0.00000000     0.00000000     0.00000000   
  0.00000000     0.00000000     0.00000000   
  0.00000000     0.00000000     0.00000000   
  0.00000000     0.00000000     0.00000000   
  0.00000000     0.00000000     0.00000000   
  0.00000000     0.00000000     0.00000000   
  0.00000000     0.00000000     0.00000000   
  0.00000000     0.00000000     0.00000000   
  0.00000000     0.00000000     0.00000000   
  0.00000000     0.00000000     0.00000000   
  0.00000000     0.00000000     0.00000000   
  0.00000000     0.00000000     0.00000000   
  0.00000000     0.00000000     0.00000000   
  0.00000000     0.00000000     0.00000000   
  0.00000000     0.00000000     0.00000000   
  0.00000000     0.00000000    -1.99653704   
  0.00000000     0.00000000    -6.84092411   
  0.00000000     0.00000000   -12.63846611   
  0.00000000     0.00000000   -18.20093894   
  0.00000000     0.00000000   -22.88857048   
  0.00000000     0.00000000   -26.37955488   
  0.00000000     0.00000000   -28.51813526   
  0.00000000     0.00000000   -29.23718037   
  0.00000000     0.00000000   -28.51813526   
  0.00000000     0.00000000   -26.37955488   
  0.00000000     0.00000000   -22.88857048   
  0.00000000     0.00000000   -18.20093894   
  0.00000000     0.00000000   -12.63846611   
  0.00000000     0.00000000    -6.84092411   
  0.00000000     0.00000000    -1.99653704   
  0.00000000     0.00000000    -0.00000000   
  0.00000000     0.00000000     0.00000000   
  0.00000000     0.00000000    -6.84092411   
  0.00000000     0.00000000   -22.56479196   
  0.00000000     0.00000000   -41.48612524   
  0.00000000     0.00000000   -59.90490129   
  0.00000000     0.00000000   -75.63758416   
  0.00000000     0.00000000   -87.46876296   
  0.00000000     0.00000000   -94.76289548   
  0.00000000     0.00000000   -97.22284375   
  0.00000000     0.00000000   -94.76289548   
  0.00000000     0.00000000   -87.46876296   
  0.00000000     0.00000000   -75.63758416   
  0.00000000     0.00000000   -59.90490129   
  0.00000000     0.00000000   -41.48612524   
  0.00000000     0.00000000   -22.56479196   
  0.00000000     0.00000000    -6.84092411   
  0.00000000     0.00000000    -0.00000000   
  0.00000000     0.00000000     0.00000000   
  0.00000000     0.00000000   -12.63846611   
  0.00000000     0.00000000   -41.48612524   
  0.00000000     0.00000000   -76.36155680   
  0.00000000     0.00000000   -110.62557397   
  0.00000000     0.00000000   -140.15533497   
  0.00000000     0.00000000   -162.52008279   
  0.00000000     0.00000000   -176.37400507   
  0.00000000     0.00000000   -181.05738920   
  0.00000000     0.00000000   -176.37400507   
  0.00000000     0.00000000   -162.52008279   
  0.00000000     0.00000000   -140.15533497   
  0.00000000     0.00000000   -110.62557397   
  0.00000000     0.00000000   -76.36155680   
  0.00000000     0.00000000   -41.48612524   
  0.00000000     0.00000000   -12.63846611   
  0.00000000     0.00000000    -0.00000000   
  0.00000000     0.00000000     0.00000000   
  0.00000000     0.00000000   -18.20093894   
  0.00000000     0.00000000   -59.90490129   
  0.00000000     0.00000000   -110.62557397   
  0.00000000     0.00000000   -160.79521186   
  0.00000000     0.00000000   -204.30569671   
  0.00000000     0.00000000   -237.42571895   
  0.00000000     0.00000000   -258.01335502   
  0.00000000     0.00000000   -264.98531021   
  0.00000000     0.00000000   -258.01335502   
  0.00000000     0.00000000   -237.42571895   
  0.00000000     0.00000000   -204.30569671   
  0.00000000     0.00000000   -160.79521186   
  0.00000000     0.00000000   -110.62557397   
  0.00000000     0.00000000   -59.90490129   
  0.00000000     0.00000000   -18.20093894   
  0.00000000     0.00000000    -0.00000000   
  0.00000000     0.00000000     0.00000000   
  0.00000000     0.00000000   -22.88857048   
  0.00000000     0.00000000   -75.63758416   
  0.00000000     0.00000000   -140.15533497   
  0.00000000     0.00000000   -204.30569671   
  0.00000000     0.00000000   -260.19315414   
  0.00000000     0.00000000   -302.88702715   
  0.00000000     0.00000000   -329.49126696   
  0.00000000     0.00000000   -338.51202098   
  0.00000000     0.00000000   -329.49126696   