<VTKFile type="UnstructuredGrid"  version="0.1"   > 
<UnstructuredGrid> 
<Piece  NumberOfPoints="  81" NumberOfCells=" 64"> 
<Points> 
<DataArray  type="Float64"  NumberOfComponents="3"  format="ascii" > 
0.000000 0.000000 0.0 
0.112695 0.000000 0.0 
0.226562 0.000000 0.0 
0.342773 0.000000 0.0 
0.462500 0.000000 0.0 
0.586914 0.000000 0.0 
0.717188 0.000000 0.0 
0.854492 0.000000 0.0 
1.000000 0.000000 0.0 
0.000000 0.112695 0.0 
0.112695 0.112695 0.0 
0.226562 0.112695 0.0 
0.342773 0.112695 0.0 
0.462500 0.112695 0.0 
0.586914 0.112695 0.0 
0.717187 0.112695 0.0 
0.854492 0.112695 0.0 
1.000000 0.112695 0.0 
0.000000 0.226562 0.0 
0.112695 0.226562 0.0 
0.226562 0.226562 0.0 
0.342773 0.226562 0.0 
0.462500 0.226562 0.0 
0.586914 0.226562 0.0 
0.717188 0.226562 0.0 
0.854492 0.226562 0.0 
1.000000 0.226562 0.0 
0.000000 0.342773 0.0 
0.112695 0.342773 0.0 
0.226562 0.342773 0.0 
0.342773 0.342773 0.0 
0.462500 0.342773 0.0 
0.586914 0.342773 0.0 
0.717188 0.342773 0.0 
0.854492 0.342773 0.0 
1.000000 0.342773 0.0 
0.000000 0.462500 0.0 
0.112695 0.462500 0.0 
0.226562 0.462500 0.0 
0.342773 0.462500 0.0 
0.462500 0.462500 0.0 
0.586914 0.462500 0.0 
0.717188 0.462500 0.0 
0.854492 0.462500 0.0 
1.000000 0.462500 0.0 
0.000000 0.586914 0.0 
0.112695 0.586914 0.0 
0.226562 0.586914 0.0 
0.342773 0.586914 0.0 
0.462500 0.586914 0.0 
0.586914 0.586914 0.0 
0.717188 0.586914 0.0 
0.854492 0.586914 0.0 
1.000000 0.586914 0.0 
0.000000 0.717188 0.0 
0.112695 0.717188 0.0 
0.226562 0.717188 0.0 
0.342773 0.717188 0.0 
0.462500 0.717188 0.0 
0.586914 0.717188 0.0 
0.717188 0.717188 0.0 
0.854492 0.717188 0.0 
1.000000 0.717188 0.0 
0.000000 0.854492 0.0 
0.112695 0.854492 0.0 
0.226562 0.854492 0.0 
0.342773 0.854492 0.0 
0.462500 0.854492 0.0 
0.586914 0.854492 0.0 
0.717188 0.854492 0.0 
0.854492 0.854492 0.0 
1.000000 0.854492 0.0 
0.000000 1.000000 0.0 
0.112695 1.000000 0.0 
0.226562 1.000000 0.0 
0.342773 1.000000 0.0 
0.462500 1.000000 0.0 
0.586914 1.000000 0.0 
0.717188 1.000000 0.0 
0.854492 1.000000 0.0 
1.000000 1.000000 0.0 
</DataArray> 
</Points> 
<Cells> 
<DataArray  type="Int32"  Name="connectivity"  format="ascii"> 
0 1 10 9 
1 2 11 10 
2 3 12 11 
3 4 13 12 
4 5 14 13 
5 6 15 14 
6 7 16 15 
7 8 17 16 
9 10 19 18 
10 11 20 19 
11 12 21 20 
12 13 22 21 
13 14 23 22 
14 15 24 23 
15 16 25 24 
16 17 26 25 
18 19 28 27 
19 20 29 28 
20 21 30 29 
21 22 31 30 
22 23 32 31 
23 24 33 32 
24 25 34 33 
25 26 35 34 
27 28 37 36 
28 29 38 37 
29 30 39 38 
30 31 40 39 
31 32 41 40 
32 33 42 41 
33 34 43 42 
34 35 44 43 
36 37 46 45 
37 38 47 46 
38 39 48 47 
39 40 49 48 
40 41 50 49 
41 42 51 50 
42 43 52 51 
43 44 53 52 
45 46 55 54 
46 47 56 55 
47 48 57 56 
48 49 58 57 
49 50 59 58 
50 51 60 59 
51 52 61 60 
52 53 62 61 
54 55 64 63 
55 56 65 64 
56 57 66 65 
57 58 67 66 
58 59 68 67 
59 60 69 68 
60 61 70 69 
61 62 71 70 
63 64 73 72 
64 65 74 73 
65 66 75 74 
66 67 76 75 
67 68 77 76 
68 69 78 77 
69 70 79 78 
70 71 80 79 
</DataArray> 
<DataArray  type="Int32"  Name="offsets"  format="ascii"> 
4 
8 
12 
16 
20 
24 
28 
32 
36 
40 
44 
48 
52 
56 
60 
64 
68 
72 
76 
80 
84 
88 
92 
96 
100 
104 
108 
112 
116 
120 
124 
128 
132 
136 
140 
144 
148 
152 
156 
160 
164 
168 
172 
176 
180 
184 
188 
192 
196 
200 
204 
208 
212 
216 
220 
224 
228 
232 
236 
240 
244 
248 
252 
256 
</DataArray> 
<DataArray  type="UInt8"  Name="types"  format="ascii"> 
9 
9 
9 
9 
9 
9 
9 
9 
9 
9 
9 
9 
9 
9 
9 
9 
9 
9 
9 
9 
9 
9 
9 
9 
9 
9 
9 
9 
9 
9 
9 
9 
9 
9 
9 
9 
9 
9 
9 
9 
9 
9 
9 
9 
9 
9 
9 
9 
9 
9 
9 
9 
9 
9 
9 
9 
9 
9 
9 
9 
9 
9 
9 
9 
</DataArray> 
</Cells> 
<PointData  Vectors="sigma"> 
<DataArray  type="Float64"  Name="sigma" NumberOfComponents="3" format="ascii"> 
403.846154   173.076923   193.509615   
350.139498   150.059785   103.328019   
299.450549   128.335950   81.763475   
236.637326   101.415997   -116.915423   
-450.443787   -193.047337   -132.149901   
-409.636063   -175.558313   51.754697   
213.731444   91.599190   68.151147   
294.087137   126.037344   87.775295   
629.957933   269.981971   112.980769   
403.846154   173.076923   193.509615   
350.139498   150.059785   103.328019   
299.450549   128.335950   81.763475   
236.637326   101.415997   -116.915423   
-450.443787   -193.047337   -132.149901   
-409.636063   -175.558313   51.754697   
213.731444   91.599190   68.151147   
294.087137   126.037344   87.775295   
629.957933   269.981971   112.980769   
403.846154   173.076923   193.509615   
350.139498   150.059785   103.328019   
299.450549   128.335950   81.763475   
236.637326   101.415997   -116.915423   
-450.443787   -193.047337   -132.149901   
-409.636063   -175.558313   51.754697   
213.731444   91.599190   68.151147   
294.087137   126.037344   87.775295   
629.957933   269.981971   112.980769   
403.846154   173.076923   193.509615   
350.139498   150.059785   103.328019   
299.450549   128.335950   81.763475   
236.637326   101.415997   -116.915423   
-458.487886   -205.242280   -136.129020   
-461.928879   -259.566298   32.891639   
93.723773   -120.567456   18.586219   
95.149154   -244.790285   -6.216722   
280.035744   -346.516491   -60.971186   
323.858833   114.644970   158.722087   
182.602732   -129.703939   32.227069   
77.068364   -295.492149   -27.471689   
13.979348   -342.996326   -232.291540   
-444.192026   -289.524044   -254.801822   
-466.678956   -281.265582   -34.327925   
-57.335616   -201.634356   -33.169864   
-107.275101   -343.669565   -69.670499   
-143.105067   -533.898468   -138.679029   
36.809389   -42.316554   17.591148   
-64.639948   -261.981942   -46.653345   
-133.756604   -407.162410   -90.245072   
-155.189166   -437.231014   -164.997920   
-162.248426   -197.748206   -167.922639   
-137.228299   -122.185226   -46.134997   
-33.270877   -77.632045   -22.180584   
-33.270877   -77.632045   -22.180584   
-33.270877   -77.632045   -22.180584   
-39.256796   -91.599190   -26.171197   
-39.256796   -91.599190   -26.171197   
-39.256796   -91.599190   -26.171197   
-40.015905   -93.370445   -33.907242   
-69.217283   -111.669012   -34.152967   
-68.891211   -112.975189   -28.701562   
-43.811452   -102.226721   -29.207634   
-43.811452   -102.226721   -29.207634   
-43.811452   -102.226721   -29.207634   
-54.016005   -126.037344   -36.010670   
-54.016005   -126.037344   -36.010670   
-54.016005   -126.037344   -36.010670   
-54.417833   -126.974944   -44.833315   
-85.865199   -143.513937   -44.804285   
-85.029421   -143.921134   -37.350098   
-56.426976   -131.662943   -37.617984   
-56.426976   -131.662943   -37.617984   
-56.426976   -131.662943   -37.617984   
-115.706559   -269.981971   -77.137706   
-115.706559   -269.981971   -77.137706   
-115.706559   -269.981971   -77.137706   
-108.527215   -253.230168   -80.636695   
-91.644158   -191.294808   -75.732711   
-83.973990   -174.332652   -53.206559   
-72.630495   -169.471154   -48.420330   
-72.630495   -169.471154   -48.420330   
-72.630495   -169.471154   -48.420330   
</DataArray> 
<DataArray  type="Float64"  Name="U" NumberOfComponents="3" format="ascii"> 
  0.00000000     0.00000000   0.0
  0.04507812    -0.00000000   0.0
  0.09062500    -0.00000000   0.0
  0.13710937    -0.00000000   0.0
  0.18500000    -0.00000000   0.0
  0.23476562    -0.00000000   0.0
  0.28687500    -0.00000000   0.0
  0.34179688    -0.00000000   0.0
  0.40000000    -0.00000000   0.0
  0.00000000    -0.01931920   0.0
  0.04507812    -0.01931920   0.0
  0.09062500    -0.01931920   0.0
  0.13710937    -0.01931920   0.0
  0.18500000    -0.01931920   0.0
  0.23476562    -0.01931920   0.0
  0.28687500    -0.01931920   0.0
  0.34179687    -0.01931920   0.0
  0.40000000    -0.01931920   0.0
  0.00000000    -0.03883929   0.0
  0.04507813    -0.03883929   0.0
  0.09062500    -0.03883929   0.0
  0.13710937    -0.03883929   0.0
  0.18500000    -0.03883929   0.0
  0.23476562    -0.03883929   0.0
  0.28687500    -0.03883929   0.0
  0.34179687    -0.03883929   0.0
  0.40000000    -0.03883929   0.0
  0.00000000    -0.05876116   0.0
  0.04507812    -0.05876116   0.0
  0.09062500    -0.05876116   0.0
  0.13710937    -0.05876116   0.0
  0.18500000    -0.05876116   0.0
  0.23476562    -0.05876116   0.0
  0.28687500    -0.05876116   0.0
  0.34179688    -0.05876116   0.0
  0.40000000    -0.05876116   0.0
  0.00000000    -0.07928571   0.0
  0.04507812    -0.07928571   0.0
  0.09062500    -0.07928571   0.0
  0.13710937    -0.07928571   0.0
  0.18500000    -0.07928571   0.0
  0.23476562    -0.07928571   0.0
  0.28687500    -0.07928571   0.0
  0.34179688    -0.07928571   0.0
  0.40000000    -0.07928571   0.0
  0.00000000    -0.10061384   0.0
  0.04507812    -0.10061384   0.0
  0.09062500    -0.10061384   0.0
  0.13710937    -0.10061384   0.0
  0.18500000    -0.10061384   0.0
  0.23476562    -0.10061384   0.0
  0.28687500    -0.10061384   0.0
  0.34179688    -0.10061384   0.0
  0.40000000    -0.10061384   0.0
  0.00000000    -0.12294643   0.0
  0.04507812    -0.12294643   0.0
  0.09062500    -0.12294643   0.0
  0.13710937    -0.12294643   0.0
  0.18500000    -0.12294643   0.0
  0.23476563    -0.12294643   0.0
  0.28687500    -0.12294643   0.0
  0.34179687    -0.12294643   0.0
  0.40000000    -0.12294643   0.0
  0.00000000    -0.14648438   0.0
  0.04507812    -0.14648438   0.0
  0.09062500    -0.14648438   0.0
  0.13710937    -0.14648438   0.0
  0.18500000    -0.14648438   0.0
  0.23476562    -0.14648438   0.0
  0.28687500    -0.14648438   0.0
  0.34179688    -0.14648438   0.0
  0.40000000    -0.14648438   0.0
  0.00000000    -0.17142857   0.0
  0.04507813    -0.17142857   0.0
  0.09062500    -0.17142857   0.0
  0.13710938    -0.17142857   0.0
  0.18500000    -0.17142857   0.0
  0.23476562    -0.17142857   0.0
  0.28687500    -0.17142857   0.0
  0.34179687    -0.17142857   0.0
  0.40000000    -0.17142857   0.0
</DataArray> 
</PointData> 
</Piece> 
</UnstructuredGrid> 
</VTKFile> 
