<VTKFile type="UnstructuredGrid"  version="0.1"   > 
<UnstructuredGrid> 
<Piece  NumberOfPoints="  8385" NumberOfCells=" 8192"> 
<Points> 
<DataArray  type="Float64"  NumberOfComponents="3"  format="ascii" > 
100.000000 0.000000 0.0 
96.899414 0.000000 0.0 
93.847656 0.000000 0.0 
90.844727 0.000000 0.0 
87.890625 0.000000 0.0 
84.985352 0.000000 0.0 
82.128906 0.000000 0.0 
79.321289 0.000000 0.0 
76.562500 0.000000 0.0 
73.852539 0.000000 0.0 
71.191406 0.000000 0.0 
68.579102 0.000000 0.0 
66.015625 0.000000 0.0 
63.500977 0.000000 0.0 
61.035156 0.000000 0.0 
58.618164 0.000000 0.0 
56.250000 0.000000 0.0 
53.930664 0.000000 0.0 
51.660156 0.000000 0.0 
49.438477 0.000000 0.0 
47.265625 0.000000 0.0 
45.141602 0.000000 0.0 
43.066406 0.000000 0.0 
41.040039 0.000000 0.0 
39.062500 0.000000 0.0 
37.133789 0.000000 0.0 
35.253906 0.000000 0.0 
33.422852 0.000000 0.0 
31.640625 0.000000 0.0 
29.907227 0.000000 0.0 
28.222656 0.000000 0.0 
26.586914 0.000000 0.0 
25.000000 0.000000 0.0 
23.461914 0.000000 0.0 
21.972656 0.000000 0.0 
20.532227 0.000000 0.0 
19.140625 0.000000 0.0 
17.797852 0.000000 0.0 
16.503906 0.000000 0.0 
15.258789 0.000000 0.0 
14.062500 0.000000 0.0 
12.915039 0.000000 0.0 
11.816406 0.000000 0.0 
10.766602 0.000000 0.0 
9.765625 0.000000 0.0 
8.813477 0.000000 0.0 
7.910156 0.000000 0.0 
7.055664 0.000000 0.0 
6.250000 0.000000 0.0 
5.493164 0.000000 0.0 
4.785156 0.000000 0.0 
4.125977 0.000000 0.0 
3.515625 0.000000 0.0 
2.954102 0.000000 0.0 
2.441406 0.000000 0.0 
1.977539 0.000000 0.0 
1.562500 0.000000 0.0 
1.196289 0.000000 0.0 
0.878906 0.000000 0.0 
0.610352 0.000000 0.0 
0.390625 0.000000 0.0 
0.219727 0.000000 0.0 
0.097656 0.000000 0.0 
0.024414 0.000000 0.0 
0.000000 0.000000 0.0 
0.000000 0.024414 0.0 
0.000000 0.097656 0.0 
0.000000 0.219727 0.0 
0.000000 0.390625 0.0 
0.000000 0.610352 0.0 
0.000000 0.878906 0.0 
0.000000 1.196289 0.0 
0.000000 1.562500 0.0 
0.000000 1.977539 0.0 
0.000000 2.441406 0.0 
0.000000 2.954102 0.0 
0.000000 3.515625 0.0 
0.000000 4.125977 0.0 
0.000000 4.785156 0.0 
0.000000 5.493164 0.0 
0.000000 6.250000 0.0 
0.000000 7.055664 0.0 
0.000000 7.910156 0.0 
0.000000 8.813477 0.0 
0.000000 9.765625 0.0 
0.000000 10.766602 0.0 
0.000000 11.816406 0.0 
0.000000 12.915039 0.0 
0.000000 14.062500 0.0 
0.000000 15.258789 0.0 
0.000000 16.503906 0.0 
0.000000 17.797852 0.0 
0.000000 19.140625 0.0 
0.000000 20.532227 0.0 
0.000000 21.972656 0.0 
0.000000 23.461914 0.0 
0.000000 25.000000 0.0 
0.000000 26.586914 0.0 
0.000000 28.222656 0.0 
0.000000 29.907227 0.0 
0.000000 31.640625 0.0 
0.000000 33.422852 0.0 
0.000000 35.253906 0.0 
0.000000 37.133789 0.0 
0.000000 39.062500 0.0 
0.000000 41.040039 0.0 
0.000000 43.066406 0.0 
0.000000 45.141602 0.0 
0.000000 47.265625 0.0 
0.000000 49.438477 0.0 
0.000000 51.660156 0.0 
0.000000 53.930664 0.0 
0.000000 56.250000 0.0 
0.000000 58.618164 0.0 
0.000000 61.035156 0.0 
0.000000 63.500977 0.0 
0.000000 66.015625 0.0 
0.000000 68.579102 0.0 
0.000000 71.191406 0.0 
0.000000 73.852539 0.0 
0.000000 76.562500 0.0 
0.000000 79.321289 0.0 
0.000000 82.128906 0.0 
0.000000 84.985352 0.0 
0.000000 87.890625 0.0 
0.000000 90.844727 0.0 
0.000000 93.847656 0.0 
0.000000 96.899414 0.0 
0.000000 100.000000 0.0 
100.000000 0.781250 0.0 
96.947341 0.781344 0.0 
93.942472 0.781626 0.0 
90.985393 0.782095 0.0 
88.076103 0.782752 0.0 
85.214602 0.783597 0.0 
82.400891 0.784630 0.0 
79.634970 0.785850 0.0 
76.916838 0.787258 0.0 
74.246495 0.788854 0.0 
71.623942 0.790638 0.0 
69.049179 0.792609 0.0 
66.522205 0.794768 0.0 
64.043020 0.797115 0.0 
61.611626 0.799650 0.0 
59.228020 0.802372 0.0 
56.892204 0.805283 0.0 
54.604178 0.808381 0.0 
52.363941 0.811666 0.0 
50.171494 0.815140 0.0 
48.026836 0.818801 0.0 
45.929968 0.822650 0.0 
43.880889 0.826687 0.0 
41.879600 0.830911 0.0 
39.926100 0.835323 0.0 
38.020390 0.839923 0.0 
36.162469 0.844711 0.0 
34.352338 0.849687 0.0 
32.589996 0.854850 0.0 
30.875444 0.860201 0.0 
29.208681 0.865740 0.0 
27.589708 0.871466 0.0 
26.018524 0.877380 0.0 
24.495130 0.883482 0.0 
23.019525 0.889772 0.0 
21.591710 0.896250 0.0 
20.211685 0.902915 0.0 
18.879449 0.909768 0.0 
17.595002 0.916809 0.0 
16.358345 0.924037 0.0 
15.169477 0.931454 0.0 
14.028399 0.939058 0.0 
12.935111 0.946850 0.0 
11.889612 0.954829 0.0 
10.891902 0.962996 0.0 
9.941982 0.971352 0.0 
9.039852 0.979894 0.0 
8.185511 0.988625 0.0 
7.378960 0.997543 0.0 
6.620198 1.006649 0.0 
5.909225 1.015943 0.0 
5.246042 1.025425 0.0 
4.630649 1.035094 0.0 
4.063045 1.044951 0.0 
3.543231 1.054996 0.0 
3.071206 1.065229 0.0 
2.646971 1.075649 0.0 
2.270525 1.086257 0.0 
1.941869 1.097053 0.0 
1.661002 1.108037 0.0 
1.427925 1.119208 0.0 
1.242637 1.130567 0.0 
1.105139 1.142114 0.0 
1.015430 1.153849 0.0 
0.973511 1.165771 0.0 
0.955627 1.201729 0.0 
0.938025 1.285571 0.0 
0.920705 1.417296 0.0 
0.903666 1.596904 0.0 
0.886909 1.824395 0.0 
0.870433 2.099770 0.0 
0.854240 2.423029 0.0 
0.838327 2.794170 0.0 
0.822697 3.213196 0.0 
0.807348 3.680104 0.0 
0.792281 4.194896 0.0 
0.777495 4.757571 0.0 
0.762991 5.368130 0.0 
0.748768 6.026572 0.0 
0.734828 6.732897 0.0 
0.721169 7.487106 0.0 
0.707791 8.289199 0.0 
0.694695 9.139174 0.0 
0.681881 10.037033 0.0 
0.669348 10.982776 0.0 
0.657097 11.976402 0.0 
0.645128 13.017911 0.0 
0.633440 14.107303 0.0 
0.622034 15.244579 0.0 
0.610910 16.429739 0.0 
0.600067 17.662781 0.0 
0.589506 18.943708 0.0 
0.579226 20.272517 0.0 
0.569228 21.649210 0.0 
0.559512 23.073786 0.0 
0.550077 24.546246 0.0 
0.540924 26.066589 0.0 
0.532053 27.634816 0.0 
0.523463 29.250926 0.0 
0.515155 30.914919 0.0 
0.507128 32.626796 0.0 
0.499383 34.386556 0.0 
0.491920 36.194199 0.0 
0.484738 38.049726 0.0 
0.477839 39.953136 0.0 
0.471220 41.904430 0.0 
0.464883 43.903607 0.0 
0.458828 45.950668 0.0 
0.453055 48.045611 0.0 
0.447563 50.188439 0.0 
0.442353 52.379149 0.0 
0.437424 54.617743 0.0 
0.432777 56.904221 0.0 
0.428412 59.238581 0.0 
0.424328 61.620826 0.0 
0.420526 64.050953 0.0 
0.417006 66.528964 0.0 
0.413767 69.054858 0.0 
0.410810 71.628636 0.0 
0.408135 74.250297 0.0 
0.405741 76.919842 0.0 
0.403628 79.637270 0.0 
0.401798 82.402581 0.0 
0.400249 85.215776 0.0 
0.398982 88.076854 0.0 
0.397996 90.985815 0.0 
0.397292 93.942660 0.0 
0.396869 96.947388 0.0 
0.396729 100.000000 0.0 
100.000000 1.562500 0.0 
96.994516 1.562685 0.0 
94.035804 1.563239 0.0 
91.123864 1.564163 0.0 
88.258696 1.565456 0.0 
85.440299 1.567119 0.0 
82.668674 1.569152 0.0 
79.943821 1.571554 0.0 
77.265739 1.574326 0.0 
74.634430 1.577467 0.0 
72.049892 1.580977 0.0 
69.512126 1.584858 0.0 
67.021132 1.589108 0.0 
64.576909 1.593727 0.0 
62.179458 1.598716 0.0 
59.828779 1.604074 0.0 
57.524872 1.609802 0.0 
55.267736 1.615900 0.0 
53.057373 1.622367 0.0 
50.893781 1.629204 0.0 
48.776960 1.636410 0.0 
46.706912 1.643986 0.0 
44.683635 1.651931 0.0 
42.707130 1.660246 0.0 
40.777397 1.668930 0.0 
38.894436 1.677984 0.0 
37.058246 1.687407 0.0 
35.268828 1.697201 0.0 
33.526182 1.707363 0.0 
31.830308 1.717895 0.0 
30.181205 1.728797 0.0 
28.578874 1.740068 0.0 
27.023315 1.751709 0.0 
25.514528 1.763719 0.0 
24.052513 1.776099 0.0 
22.637269 1.788849 0.0 
21.268797 1.801968 0.0 
19.947097 1.815456 0.0 
18.672168 1.829314 0.0 
17.444012 1.843542 0.0 
16.262627 1.858139 0.0 
15.128013 1.873106 0.0 
14.040172 1.888442 0.0 
12.999102 1.904148 0.0 
12.004805 1.920223 0.0 
11.057279 1.936668 0.0 
10.156524 1.953483 0.0 
9.302542 1.970667 0.0 
8.495331 1.988220 0.0 
7.734892 2.006143 0.0 
7.021224 2.024436 0.0 
6.354329 2.043098 0.0 
5.734205 2.062130 0.0 
5.160853 2.081531 0.0 
4.634273 2.101302 0.0 
4.154465 2.121443 0.0 
3.721428 2.141953 0.0 
3.335163 2.162832 0.0 
2.995670 2.184081 0.0 
2.702948 2.205700 0.0 
2.456999 2.227688 0.0 
2.257821 2.250046 0.0 
2.105415 2.272773 0.0 
1.999781 2.295870 0.0 
1.940918 2.319336 0.0 
1.905718 2.366465 0.0 
1.871073 2.460551 0.0 
1.836982 2.601594 0.0 
1.803446 2.789593 0.0 
1.770464 3.024548 0.0 
1.738036 3.306460 0.0 
1.706162 3.635329 0.0 
1.674843 4.011154 0.0 
1.644078 4.433936 0.0 
1.613867 4.903674 0.0 
1.584211 5.420369 0.0 
1.555109 5.984020 0.0 
1.526561 6.594628 0.0 
1.498568 7.252192 0.0 
1.471129 7.956713 0.0 
1.444244 8.708191 0.0 
1.417914 9.506625 0.0 
1.392138 10.352015 0.0 
1.366916 11.244363 0.0 
1.342249 12.183666 0.0 
1.318136 13.169926 0.0 
1.294577 14.203143 0.0 
1.271573 15.283316 0.0 
1.249123 16.410446 0.0 
1.227227 17.584532 0.0 
1.205885 18.805575 0.0 
1.185098 20.073575 0.0 
1.164865 21.388531 0.0 
1.145187 22.750443 0.0 
1.126063 24.159312 0.0 
1.107493 25.615138 0.0 
1.089478 27.117920 0.0 
1.072016 28.667659 0.0 
1.055110 30.264354 0.0 
1.038757 31.908005 0.0 
1.022959 33.598614 0.0 
1.007715 35.336179 0.0 
0.993025 37.120700 0.0 
0.978890 38.952178 0.0 
0.965309 40.830612 0.0 
0.952283 42.756003 0.0 
0.939810 44.728351 0.0 
0.927892 46.747655 0.0 
0.916529 48.813915 0.0 
0.905719 50.927132 0.0 
0.895464 53.087306 0.0 
0.885764 55.294436 0.0 
0.876617 57.548523 0.0 
0.868025 59.849566 0.0 
0.859988 62.197566 0.0 
0.852504 64.592522 0.0 
0.845575 67.034435 0.0 
0.839201 69.523305 0.0 
0.833380 72.059131 0.0 
0.828114 74.641913 0.0 
0.823402 77.271652 0.0 
0.819245 79.948348 0.0 
0.815642 82.672000 0.0 
0.812593 85.442609 0.0 
0.810099 88.260174 0.0 
0.808159 91.124696 0.0 
0.806773 94.036174 0.0 
0.805941 96.994609 0.0 
0.805664 100.000000 0.0 
100.000000 2.343750 0.0 
97.040939 2.344023 0.0 
94.127652 2.344841 0.0 
91.260140 2.346204 0.0 
88.438404 2.348113 0.0 
85.662442 2.350567 0.0 
82.932255 2.353567 0.0 
80.247843 2.357112 0.0 
77.609205 2.361202 0.0 
75.016343 2.365838 0.0 
72.469255 2.371019 0.0 
69.967943 2.376746 0.0 
67.512405 2.383018 0.0 
65.102642 2.389835 0.0 
62.738654 2.397197 0.0 
60.420441 2.405106 0.0 
58.148003 2.413559 0.0 
55.921339 2.422558 0.0 
53.740451 2.432102 0.0 
51.605337 2.442192 0.0 
49.515998 2.452826 0.0 
47.472434 2.464007 0.0 
45.474645 2.475733 0.0 
43.522631 2.488004 0.0 
41.616392 2.500820 0.0 
[...]
<PointData  Vectors="sigma"> 
<DataArray  type="Float64"  Name="sigma" NumberOfComponents="3" format="ascii"> 
-0.344403   -0.000530   0.007634   
-0.350495   -0.020732   0.111109   
-0.340909   0.007086   -0.013180   
-0.341189   0.000018   -0.000068   
-0.338373   0.000019   -0.000056   
-0.333948   0.000018   -0.000046   
-0.327364   0.000016   -0.000034   
-0.318010   0.000015   -0.000022   
-0.305250   0.000016   -0.000009   
-0.288456   0.000020   0.000004   
-0.267060   0.000031   0.000016   
-0.240601   0.000049   0.000025   
-0.208773   0.000075   0.000032   
-0.171471   0.000110   0.000035   
-0.128817   0.000154   0.000033   
-0.081171   0.000204   0.000027   
-0.029119   0.000258   0.000015   
0.026559   0.000313   -0.000002   
0.084939   0.000366   -0.000022   
0.145012   0.000413   -0.000044   
0.205750   0.000453   -0.000068   
0.266169   0.000482   -0.000092   
0.325376   0.000502   -0.000114   
0.382614   0.000510   -0.000134   
0.437277   0.000509   -0.000151   
0.488928   0.000499   -0.000164   
0.537287   0.000482   -0.000173   
0.582219   0.000461   -0.000179   
0.623716   0.000438   -0.000181   
0.661868   0.000413   -0.000180   
0.696837   0.000390   -0.000178   
0.728837   0.000369   -0.000173   
0.758106   0.000351   -0.000167   
0.784892   0.000337   -0.000162   
0.809435   0.000328   -0.000156   
0.831954   0.000322   -0.000152   
0.852645   0.000319   -0.000149   
0.871670   0.000320   -0.000148   
0.889160   0.000322   -0.000149   
0.905217   0.000325   -0.000152   
0.919913   0.000328   -0.000158   
0.933297   0.000330   -0.000167   
0.945399   0.000329   -0.000178   
0.956238   0.000324   -0.000192   
0.965828   0.000313   -0.000207   
0.974182   0.000296   -0.000224   
0.981320   0.000271   -0.000242   
0.987272   0.000238   -0.000260   
0.992084   0.000196   -0.000277   
0.995821   0.000144   -0.000292   
0.998566   0.000083   -0.000304   
1.000424   0.000013   -0.000311   
1.001520   -0.000062   -0.000312   
1.001996   -0.000140   -0.000303   
1.002008   -0.000215   -0.000285   
1.001711   -0.000279   -0.000255   
1.001254   -0.000328   -0.000214   
1.000761   -0.000356   -0.000162   
1.000332   -0.000363   -0.000101   
1.000001   -0.000347   -0.000029   
0.999886   -0.000332   0.000037   
0.999514   -0.000253   0.000157   
1.000975   -0.000480   0.000020   
0.990049   0.001088   0.001585   
0.999977   -0.000594   0.000112   
0.999536   -0.000312   0.000192   
0.999351   -0.000239   0.000157   
0.999371   -0.000077   0.000124   
0.999334   0.000179   0.000083   
0.999335   0.000543   0.000040   
0.999357   0.000987   -0.000005   
0.999409   0.001449   -0.000050   
0.999487   0.001827   -0.000093   
0.999588   0.001988   -0.000133   
0.999703   0.001775   -0.000167   
0.999825   0.001020   -0.000196   
0.999947   -0.000442   -0.000220   
1.000064   -0.002765   -0.000238   
1.000173   -0.006084   -0.000251   
1.000273   -0.010507   -0.000261   
1.000362   -0.016117   -0.000267   
1.000443   -0.022966   -0.000271   
1.000514   -0.031073   -0.000272   
1.000575   -0.040416   -0.000271   
1.000628   -0.050931   -0.000268   
1.000672   -0.062505   -0.000264   
1.000707   -0.074967   -0.000257   
1.000733   -0.088088   -0.000249   
1.000750   -0.101569   -0.000238   
1.000757   -0.115038   -0.000226   
1.000754   -0.128040   -0.000211   
1.000742   -0.140033   -0.000194   
1.000719   -0.150380   -0.000174   
1.000686   -0.158345   -0.000152   
1.000642   -0.163086   -0.000126   
1.000586   -0.163655   -0.000098   
1.000519   -0.158999   -0.000066   
1.000440   -0.147962   -0.000032   
1.000350   -0.129299   0.000006   
1.000248   -0.101692   0.000047   
1.000135   -0.063773   0.000091   
1.000012   -0.014163   0.000136   
0.999879   0.048482   0.000184   
0.999740   0.125414   0.000233   
0.999596   0.217724   0.000282   
0.999451   0.326265   0.000330   
0.999307   0.451565   0.000378   
0.999169   0.593753   0.000424   
0.999042   0.752481   0.000467   
0.998929   0.926875   0.000506   
0.998835   1.115503   0.000542   
0.998763   1.316386   0.000574   
0.998715   1.527041   0.000600   
0.998692   1.744562   0.000621   
0.998694   1.965731   0.000635   
0.998718   2.187155   0.000643   
0.998761   2.405403   0.000644   
0.998820   2.617135   0.000638   
0.998891   2.819212   0.000625   
0.998969   3.008777   0.000606   
0.999052   3.183294   0.000580   
0.999136   3.340560   0.000549   
0.999221   3.478680   0.000513   
0.999307   3.596024   0.000472   
0.999389   3.691168   0.000429   
0.999476   3.762799   0.000377   
0.999558   3.809809   0.000332   
1.007236   3.830831   -0.005770   
1.007236   3.830831   -0.005770   
-0.270210   -0.000288   0.007569   
-0.275801   -0.020072   0.109305   
-0.266308   0.006888   -0.012644   
-0.266297   0.000056   0.000527   
-0.263313   0.000078   0.000901   
-0.258799   0.000099   0.001420   
-0.252278   0.000125   0.002110   
-0.243222   0.000154   0.002992   
-0.231084   0.000189   0.004080   
-0.215328   0.000227   0.005379   
-0.195468   0.000270   0.006879   
-0.171110   0.000317   0.008557   
-0.141991   0.000365   0.010376   
-0.108016   0.000412   0.012281   
-0.069278   0.000457   0.014209   
-0.026073   0.000495   0.016089   
0.021115   0.000525   0.017851   
0.071634   0.000544   0.019428   
0.124701   0.000550   0.020764   
0.179458   0.000543   0.021817   
0.235017   0.000524   0.022564   
0.290513   0.000493   0.023000   
0.345152   0.000453   0.023134   
0.398242   0.000407   0.022993   
0.449216   0.000356   0.022613   
0.497642   0.000305   0.022036   
0.543225   0.000256   0.021309   
0.585798   0.000211   0.020478   
0.625301   0.000172   0.019585   
0.661772   0.000139   0.018668   
0.695314   0.000114   0.017759   
0.726086   0.000097   0.016883   
0.754276   0.000087   0.016058   
0.780087   0.000084   0.015293   
0.803724   0.000085   0.014593   
0.825382   0.000089   0.013957   
0.845240   0.000095   0.013380   
0.863456   0.000100   0.012851   
0.880163   0.000103   0.012359   
0.895470   0.000101   0.011890   
0.909466   0.000093   0.011429   
0.922220   0.000075   0.010962   
0.933786   0.000048   0.010474   
0.944206   0.000008   0.009954   
0.953519   -0.000044   0.009393   
0.961761   -0.000110   0.008783   
0.968968   -0.000190   0.008123   
0.975187   -0.000283   0.007413   
0.980470   -0.000387   0.006658   
0.984879   -0.000500   0.005869   
0.988490   -0.000619   0.005059   
0.991385   -0.000738   0.004246   
0.993654   -0.000852   0.003450   
0.995391   -0.000950   0.002694   
0.996691   -0.001024   0.001999   
0.997642   -0.001064   0.001384   
0.998324   -0.001063   0.000863   
0.998806   -0.001018   0.000443   
0.999139   -0.000932   0.000122   
0.999368   -0.000817   -0.000110   
0.999506   -0.000684   -0.000265   
0.999635   -0.000562   -0.000369   
0.999496   -0.000427   -0.000401   
1.000197   -0.000477   -0.000520   
0.999447   -0.000288   -0.000356   
0.999314   -0.000342   -0.000322   
0.999250   -0.000386   -0.000242   
0.999153   -0.000468   -0.000121   
0.999082   -0.000600   0.000053   
0.999033   -0.000808   0.000292   
0.999018   -0.001133   0.000603   
0.999042   -0.001628   0.000988   
0.999103   -0.002364   0.001443   
0.999196   -0.003425   0.001960   
0.999316   -0.004909   0.002524   
0.999451   -0.006919   0.003118   
0.999594   -0.009560   0.003723   
0.999738   -0.012936   0.004319   
0.999879   -0.017136   0.004889   
1.000013   -0.022235   0.005416   
1.000141   -0.028290   0.005883   
1.000259   -0.035326   0.006276   
1.000369   -0.043343   0.006582   
1.000470   -0.052300   0.006788   
1.000561   -0.062117   0.006882   
1.000642   -0.072665   0.006853   
1.000713   -0.083762   0.006691   
1.000774   -0.095169   0.006385   
1.000824   -0.106580   0.005927   
1.000864   -0.117620   0.005307   
1.000892   -0.127835   0.004518   
1.000909   -0.136689   0.003550   
1.000915   -0.143557   0.002398   
1.000908   -0.147721   0.001056   
1.000888   -0.148370   -0.000480   
1.000855   -0.144595   -0.002210   
1.000808   -0.135393   -0.004135   
1.000747   -0.119678   -0.006249   
1.000672   -0.096286   -0.008541   
1.000581   -0.063998   -0.010997   
1.000476   -0.021566   -0.013595   
1.000356   0.032254   -0.016305   
1.000223   0.098654   -0.019088   
1.000078   0.178721   -0.021898   
0.999923   0.273375   -0.024678   
0.999761   0.383295   -0.027364   
0.999595   0.508853   -0.029887   
0.999431   0.650039   -0.032172   
0.999273   0.806406   -0.034146   
0.999126   0.977025   -0.035739   
0.998995   1.160474   -0.036892   
0.998885   1.354841   -0.037560   
0.998798   1.557777   -0.037713   
0.998737   1.766570   -0.037346   
0.998702   1.978243   -0.036469   
0.998692   2.189673   -0.035114   
0.998704   2.397713   -0.033329   
0.998736   2.599300   -0.031170   
0.998783   2.791552   -0.028703   
0.998842   2.971834   -0.025991   
0.998908   3.137793   -0.023094   
0.998979   3.287370   -0.020063   
0.999054   3.418774   -0.016942   
0.999130   3.530455   -0.013761   
0.999207   3.621032   -0.010538   
0.999283   3.689268   -0.007290   
0.999366   3.734006   -0.004007   
1.006570   3.754040   -0.007064   
1.006570   3.754040   -0.007064   
-0.196003   -0.000252   0.007371   
-0.201197   -0.019394   0.107579   
-0.191818   0.006749   -0.012085   
-0.191590   0.000175   0.001135   
-0.188511   0.000249   0.001847   
-0.183988   0.000336   0.002824   
-0.177607   0.000439   0.004115   
-0.168915   0.000557   0.005757   
-0.157441   0.000686   0.007778   
-0.142727   0.000823   0.010187   
-0.124354   0.000961   0.012971   
-0.101986   0.001094   0.016089   
-0.075393   0.001212   0.019478   
-0.044487   0.001306   0.023047   
-0.009338   0.001368   0.026683   
0.029816   0.001390   0.030263   
0.072574   0.001368   0.033657   
0.118389   0.001300   0.036743   
0.166600   0.001188   0.039414   
0.216473   0.001037   0.041588   
0.267239   0.000856   0.043212   
0.318139   0.000654   0.044264   
0.368465   0.000441   0.044753   
0.417587   0.000228   0.044715   
0.464976   0.000024   0.044208   
0.510214   -0.000163   0.043302   
0.553001   -0.000326   0.042079   
0.593145   -0.000462   0.040621   
0.630555   -0.000568   0.039007   
0.665223   -0.000644   0.037309   
0.697209   -0.000693   0.035591   
0.726625   -0.000716   0.033903   
0.753617   -0.000717   0.032283   
0.778351   -0.000702   0.030759   
0.801002   -0.000675   0.029346   
0.821741   -0.000642   0.028048   
0.840732   -0.000608   0.026863   
0.858123   -0.000579   0.025778   
0.874046   -0.000561   0.024778   
0.888616   -0.000557   0.023842   
0.901928   -0.000572   0.022948   
0.914065   -0.000611   0.022074   
0.925095   -0.000677   0.021196   
0.935077   -0.000771   0.020296   
0.944062   -0.000894   0.019357   
0.952100   -0.001047   0.018366   
0.959238   -0.001229   0.017317   
0.965527   -0.001435   0.016208   
0.971018   -0.001662   0.015043   
0.975770   -0.001903   0.013834   
0.979843   -0.002151   0.012595   
0.983301   -0.002397   0.011347   
0.986211   -0.002631   0.010112   
0.988637   -0.002843   0.008917   
0.990643   -0.003023   0.007784   
0.992289   -0.003163   0.006737   
0.993626   -0.003258   0.005795   
0.994702   -0.003306   0.004969   
0.995557   -0.003309   0.004268   
0.996223   -0.003275   0.003694   
0.996735   -0.003217   0.003245   
0.997088   -0.003149   0.002918   
0.997389   -0.003100   0.002696   
0.997269   -0.003033   0.002626   
0.997389   -0.003078   0.002569   
0.997403   -0.003195   0.002676   
0.997396   -0.003444   0.002875   
0.997420   -0.003818   0.003177   
0.997460   -0.004337   0.003582   
0.997529   -0.005027   0.004092   
0.997629   -0.005921   0.004703   
0.997762   -0.007064   0.005407   
0.997925   -0.008507   0.006193   
0.998115   -0.010310   0.007044   
0.998325   -0.012540   0.007937   
0.998549   -0.015267   0.008849   
0.998783   -0.018560   0.009754   
0.999022   -0.022488   0.010622   
0.999262   -0.027108   0.011426   
0.999500   -0.032466   0.012139   
0.999734   -0.038589   0.012734   
0.999962   -0.045479   0.013184   
1.000180   -0.053113   0.013467   
1.000389   -0.061429   0.013558   
1.000587   -0.070331   0.013435   
1.000773   -0.079673   0.013077   
1.000947   -0.089263   0.012463   
1.001108   -0.098851   0.011573   
1.001255   -0.108125   0.010390   
1.001389   -0.116708   0.008895   
1.001507   -0.124148   0.007073   
1.001611   -0.129918   0.004909   
1.001699   -0.133406   0.002390   
1.001769   -0.133917   -0.000492   
1.001821   -0.130672   -0.003742   
1.001852   -0.122803   -0.007363   
1.001863   -0.109362   -0.011346   
1.001850   -0.089330   -0.015680   
1.001813   -0.061627   -0.020340   
1.001749   -0.025131   -0.025292   
1.001656   0.021291   -0.030489   
1.001535   0.078752   -0.035866   
1.001383   0.148304   -0.041345   
1.001201   0.230880   -0.046830   
1.000990   0.327243   -0.052210   
1.000754   0.437924   -0.057359   
1.000496   0.563153   -0.062143   
1.000222   0.702808   -0.066423   
0.999940   0.856363   -0.070061   
0.999657   1.022855   -0.072933   
0.999383   1.200880   -0.074933   
0.999127   1.388606   -0.075982   
0.998896   1.583816   -0.076036   
0.998698   1.783983   -0.075088   
0.998537   1.986354   -0.073167   
0.998415   2.188059   -0.070339   
0.998331   2.386208   -0.066693   
0.998283   2.577993   -0.062341   
0.998267   2.760768   -0.057402   
0.998278   2.932099   -0.051996   
0.998310   3.089807   -0.046233   
0.998358   3.231964   -0.040212   
0.998418   3.356882   -0.034010   
0.998485   3.463083   -0.027685   
0.998556   3.549244   -0.021272   
0.998629   3.614177   -0.014798   
0.998712   3.656731   -0.008251   
1.005476   3.675796   -0.008346   
1.005476   3.675796   -0.008346   
-0.121803   -0.000215   0.007114   
-0.126676   -0.018714   0.105898   
-0.117442   0.006668   -0.011516   
-0.117061   0.000369   0.001743   
-0.113949   0.000522   0.002765   
-0.109484   0.000709   0.004152   
-0.103309   0.000930   0.005971   
-0.095033   0.001181   0.008274   
-0.084254   0.001456   0.011099   
-0.070577   0.001746   0.014461   
-0.053645   0.002035   0.018343   
-0.033164   0.002308   0.022698   
-0.008934   0.002545   0.027442   
0.019131   0.002727   0.032457   
0.050981   0.002836   0.037597   
0.086425   0.002857   0.042694   
0.125133   0.002781   0.047577   
0.166649   0.002606   0.052074   
0.210413   0.002337   0.056037   
0.255796   0.001985   0.059344   
0.302130   0.001569   0.061911   
0.348750   0.001107   0.063694   
0.395022   0.000625   0.064692   
0.440374   0.000143   0.064941   
0.484312   -0.000318   0.064507   
0.526438   -0.000740   0.063480   
0.566451   -0.001110   0.061963   
0.604147   -0.001420   0.060067   
0.639407   -0.001666   0.057900   
0.672194   -0.001846   0.055565   
0.702530   -0.001965   0.053152   
0.730493   -0.002028   0.050738   
0.756191   -0.002042   0.048384   
0.779760   -0.002018   0.046135   
0.801348   -0.001965   0.044021   
0.821105   -0.001894   0.042059   
0.839179   -0.001817   0.040251   
0.855709   -0.001744   0.038590   
0.870822   -0.001685   0.037063   
0.884633   -0.001649   0.035647   
0.897243   -0.001645   0.034319   
0.908741   -0.001679   0.033050   
0.919203   -0.001757   0.031816   
0.928697   -0.001883   0.030591   
0.937285   -0.002060   0.029354   
0.945022   -0.002287   0.028088   
0.951962   -0.002562   0.026781   
0.958155   -0.002882   0.025429   
0.963654   -0.003240   0.024031   
0.968509   -0.003627   0.022596   
0.972773   -0.004034   0.021136   
0.976497   -0.004449   0.019668   
0.979731   -0.004858   0.018213   
0.982525   -0.005248   0.016794   
0.984924   -0.005608   0.015434   
0.986971   -0.005928   0.014156   
0.988705   -0.006200   0.012979   
0.990158   -0.006423   0.011919   
0.991361   -0.006597   0.010990   
0.992340   -0.006729   0.010200   
0.993116   -0.006829   0.009556   
0.993715   -0.006910   0.009059   
0.994111   -0.006977   0.008718   
0.994471   -0.007072   0.008516   
0.994571   -0.007130   0.008488   
0.994697   -0.007413   0.008594   
0.994857   -0.007858   0.008841   
0.995026   -0.008485   0.009223   
0.995219   -0.009309   0.009734   
0.995439   -0.010351   0.010365   
0.995689   -0.011640   0.011106   
0.995972   -0.013209   0.011942   
0.996287   -0.015096   0.012853   
0.996630   -0.017343   0.013817   
0.997000   -0.019998   0.014807   
0.997389   -0.023106   0.015793   
0.997794   -0.026716   0.016741   
0.998208   -0.030867   0.017619   
0.998626   -0.035594   0.018390   
0.999043   -0.040916   0.019019   
0.999456   -0.046837   0.019472   
0.999861   -0.053336   0.019713   
1.000255   -0.060368   0.019709   
1.000637   -0.067856   0.019427   
1.001006   -0.075683   0.018836   
1.001358   -0.083693   0.017904   
1.001695   -0.091679   0.016603   
1.002014   -0.099386   0.014904   
1.002314   -0.106496   0.012781   
1.002595   -0.112631   0.010209   
1.002855   -0.117344   0.007164   
1.003093   -0.120117   0.003629   
1.003305   -0.120357   -0.000413   
1.003492   -0.117392   -0.004973   
1.003648   -0.110476   -0.010054   
1.003773   -0.098787   -0.015655   
1.003861   -0.081431   -0.021761   
1.003908   -0.057458   -0.028346   
1.003911   -0.025868   -0.035370   
1.003866   0.014362   -0.042777   
1.003767   0.064258   -0.050488   
1.003611   0.124809   -0.058406   
1.003396   0.196934   -0.066410   
1.003120   0.281429   -0.074356   
1.002784   0.378916   -0.082080   
1.002391   0.489790   -0.089401   
1.001948   0.614167   -0.096127   
1.001463   0.751827   -0.102061   
1.000949   0.902184   -0.107018   
1.000421   1.064259   -0.110827   
0.999894   1.236676   -0.113349   
0.999387   1.417686   -0.114486   
0.998913   1.605203   -0.114187   
0.998488   1.796875   -0.112453   
0.998121   1.990159   -0.109334   
0.997819   2.182415   -0.104928   
0.997583   2.370993   -0.099366   
0.997412   2.553318   -0.092806   
0.997301   2.726955   -0.085415   
0.997241   2.889664   -0.077361   
0.997223   3.039418   -0.068799   
0.997240   3.174418   -0.059862   
0.997281   3.293073   -0.050660   
0.997339   3.393976   -0.041274   
0.997406   3.475865   -0.031752   
0.997477   3.537592   -0.022133   
0.997559   3.578042   -0.012395   
1.003918   3.596160   -0.009607   
1.003918   3.596160   -0.009607   
-0.047634   -0.000142   0.006829   
-0.052236   -0.018026   0.104252   
-0.043180   0.006646   -0.010948   
-0.042700   0.000633   0.002339   
-0.039609   0.000888   0.003641   
-0.035258   0.001203   0.005391   
-0.029340   0.001576   0.007669   
-0.021522   0.001999   0.010540   
-0.011459   0.002463   0.014052   
0.001189   0.002950   0.018223   
0.016730   0.003438   0.023039   
0.035418   0.003899   0.028447   
0.057433   0.004302   0.034350   
0.082857   0.004614   0.040614   
0.111661   0.004805   0.047068   
0.143695   0.004851   0.053514   
0.178689   0.004735   0.059745   
0.216263   0.004453   0.065553   
0.255944   0.004011   0.070750   
0.297193   0.003425   0.075180   
0.339430   0.002724   0.078727   
0.382068   0.001940   0.081323   
0.424542   0.001110   0.082949   
0.466328   0.000274   0.083633   
0.506970   -0.000536   0.083441   
0.546089   -0.001289   0.082471   
0.583387   -0.001960   0.080840   
0.618652   -0.002535   0.078679   
0.651748   -0.003004   0.076119   
0.682614   -0.003363   0.073287   
0.711245   -0.003616   0.070298   
0.737686   -0.003771   0.067254   
0.762019   -0.003839   0.064237   
0.784353   -0.003835   0.061313   
0.804812   -0.003774   0.058528   
0.823527   -0.003674   0.055913   
0.840632   -0.003552   0.053482   
0.856256   -0.003424   0.051237   
0.870520   -0.003306   0.049167   
0.883537   -0.003214   0.047256   
0.895409   -0.003159   0.045480   
0.906228   -0.003154   0.043813   
0.916074   -0.003208   0.042226   
0.925023   -0.003327   0.040693   
0.933138   -0.003515   0.039189   
0.940482   -0.003775   0.037694   
0.947110   -0.004103   0.036191   
0.953073   -0.004498   0.034671   
0.958421   -0.004950   0.033130   
0.963202   -0.005452   0.031571   
0.967461   -0.005991   0.030000   
0.971241   -0.006554   0.028431   