<VTKFile type="UnstructuredGrid"  version="0.1"   > 
<UnstructuredGrid> 
<Piece  NumberOfPoints="  9" NumberOfCells=" 4"> 
<Points> 
<DataArray  type="Float64"  NumberOfComponents="3"  format="ascii" > 
0.000000 -6.000000 0.0 
24.000000 -6.000000 0.0 
48.000000 -6.000000 0.0 
0.000000 0.000000 0.0 
24.000000 0.000000 0.0 
48.000000 0.000000 0.0 
0.000000 6.000000 0.0 
24.000000 6.000000 0.0 
48.000000 6.000000 0.0 
</DataArray> 
</Points> 
<Cells> 
<DataArray  type="Int32"  Name="connectivity"  format="ascii"> 
0 1 4 3 
1 2 5 4 
3 4 7 6 
4 5 8 7 
</DataArray> 
<DataArray  type="Int32"  Name="offsets"  format="ascii"> 
4 
8 
12 
16 
</DataArray> 
<DataArray  type="UInt8"  Name="types"  format="ascii"> 
9 
9 
9 
9 
</DataArray> 
</Cells> 
<PointData  Vectors="sigma"> 
<DataArray  type="Float64"  Name="sigma" NumberOfComponents="3" format="ascii"> 
-1677.874671   32.474233   -250.786677   
-1028.908608   -16.444866   -65.457772   
-222.320505   -6.509015   -12.691504   
-0.000000   -0.000000   -353.430931   
-0.000000   -0.000000   -224.173535   
-0.000000   -0.000000   -192.254591   
1677.874671   -32.474233   -250.786677   
1028.908608   16.444866   -65.457772   
222.320505   6.509015   -12.691504   
</DataArray> 
<DataArray  type="Float64"  Name="U" NumberOfComponents="3" format="ascii"> 
  0.00000151    -0.00260454   0.0
 -0.00044175    -0.00267295   0.0
 -0.00127105    -0.00861701   0.0
 -0.00130869    -0.00130916   0.0
 -0.00175173    -0.00106608   0.0
 -0.00460445    -0.00384224   0.0
 -0.00000000    -0.00264672   0.0
 -0.00007907    -0.00190866   0.0
 -0.00000000    -0.00862132   0.0
</DataArray> 
</PointData> 
</Piece> 
</UnstructuredGrid> 
</VTKFile> 
